+ 0 0 2 tcp 1000 ------- 1 0.0 4.0 0 0
- 0 0 2 tcp 1000 ------- 1 0.0 4.0 0 0
+ 0 0 2 ping 64 ------- 0 0.1 4.1 -1 1
+ 0 1 2 ping 64 ------- 0 1.1 5.1 -1 2
- 0 1 2 ping 64 ------- 0 1.1 5.1 -1 2
+ 0 1 2 tcp 1000 ------- 2 1.0 5.0 0 3
r 5e-06 1 2 ping 64 ------- 0 1.1 5.1 -1 2
+ 5e-06 2 3 ping 64 ------- 0 1.1 5.1 -1 2
- 5e-06 2 3 ping 64 ------- 0 1.1 5.1 -1 2
- 5e-06 1 2 tcp 1000 ------- 2 1.0 5.0 0 3
- 8e-05 0 2 ping 64 ------- 0 0.1 4.1 -1 1
r 8.5e-05 1 2 tcp 1000 ------- 2 1.0 5.0 0 3
+ 8.5e-05 2 3 tcp 1000 ------- 2 1.0 5.0 0 3
r 0.00508 0 2 tcp 1000 ------- 1 0.0 4.0 0 0
+ 0.00508 2 3 tcp 1000 ------- 1 0.0 4.0 0 0
r 0.005085 0 2 ping 64 ------- 0 0.1 4.1 -1 1
+ 0.005085 2 3 ping 64 ------- 0 0.1 4.1 -1 1
- 0.005125 2 3 tcp 1000 ------- 2 1.0 5.0 0 3
r 0.006125 2 3 ping 64 ------- 0 1.1 5.1 -1 2
+ 0.006125 3 5 ping 64 ------- 0 1.1 5.1 -1 2
- 0.006125 3 5 ping 64 ------- 0 1.1 5.1 -1 2
r 0.00613 3 5 ping 64 ------- 0 1.1 5.1 -1 2
+ 0.00613 5 3 ping 64 ------- 0 5.1 1.1 -1 4
- 0.00613 5 3 ping 64 ------- 0 5.1 1.1 -1 4
r 0.006135 5 3 ping 64 ------- 0 5.1 1.1 -1 4
+ 0.006135 3 2 ping 64 ------- 0 5.1 1.1 -1 4
- 0.006135 3 2 ping 64 ------- 0 5.1 1.1 -1 4
r 0.012255 3 2 ping 64 ------- 0 5.1 1.1 -1 4
+ 0.012255 2 1 ping 64 ------- 0 5.1 1.1 -1 4
- 0.012255 2 1 ping 64 ------- 0 5.1 1.1 -1 4
r 0.01226 2 1 ping 64 ------- 0 5.1 1.1 -1 4
- 0.085125 2 3 tcp 1000 ------- 1 0.0 4.0 0 0
r 0.086125 2 3 tcp 1000 ------- 2 1.0 5.0 0 3
+ 0.086125 3 5 tcp 1000 ------- 2 1.0 5.0 0 3
- 0.086125 3 5 tcp 1000 ------- 2 1.0 5.0 0 3
r 0.086205 3 5 tcp 1000 ------- 2 1.0 5.0 0 3
+ 0.086205 5 3 ack 40 ------- 2 5.0 1.0 0 5
- 0.086205 5 3 ack 40 ------- 2 5.0 1.0 0 5
r 0.086208 5 3 ack 40 ------- 2 5.0 1.0 0 5
+ 0.086208 3 2 ack 40 ------- 2 5.0 1.0 0 5
- 0.086208 3 2 ack 40 ------- 2 5.0 1.0 0 5
r 0.090408 3 2 ack 40 ------- 2 5.0 1.0 0 5
+ 0.090408 2 1 ack 40 ------- 2 5.0 1.0 0 5
- 0.090408 2 1 ack 40 ------- 2 5.0 1.0 0 5
r 0.090412 2 1 ack 40 ------- 2 5.0 1.0 0 5
+ 0.090412 1 2 tcp 1000 ------- 2 1.0 5.0 1 6
- 0.090412 1 2 tcp 1000 ------- 2 1.0 5.0 1 6
r 0.090492 1 2 tcp 1000 ------- 2 1.0 5.0 1 6
+ 0.090492 2 3 tcp 1000 ------- 2 1.0 5.0 1 6
- 0.165125 2 3 ping 64 ------- 0 0.1 4.1 -1 1
r 0.166125 2 3 tcp 1000 ------- 1 0.0 4.0 0 0
+ 0.166125 3 4 tcp 1000 ------- 1 0.0 4.0 0 0
- 0.166125 3 4 tcp 1000 ------- 1 0.0 4.0 0 0
- 0.170245 2 3 tcp 1000 ------- 2 1.0 5.0 1 6
r 0.171205 3 4 tcp 1000 ------- 1 0.0 4.0 0 0
+ 0.171205 4 3 ack 40 ------- 1 4.0 0.0 0 7
- 0.171205 4 3 ack 40 ------- 1 4.0 0.0 0 7
r 0.171245 2 3 ping 64 ------- 0 0.1 4.1 -1 1
+ 0.171245 3 4 ping 64 ------- 0 0.1 4.1 -1 1
- 0.171245 3 4 ping 64 ------- 0 0.1 4.1 -1 1
r 0.176208 4 3 ack 40 ------- 1 4.0 0.0 0 7
+ 0.176208 3 2 ack 40 ------- 1 4.0 0.0 0 7
- 0.176208 3 2 ack 40 ------- 1 4.0 0.0 0 7
r 0.17625 3 4 ping 64 ------- 0 0.1 4.1 -1 1
+ 0.17625 4 3 ping 64 ------- 0 4.1 0.1 -1 8
- 0.17625 4 3 ping 64 ------- 0 4.1 0.1 -1 8
r 0.180408 3 2 ack 40 ------- 1 4.0 0.0 0 7
+ 0.180408 2 0 ack 40 ------- 1 4.0 0.0 0 7
- 0.180408 2 0 ack 40 ------- 1 4.0 0.0 0 7
r 0.181255 4 3 ping 64 ------- 0 4.1 0.1 -1 8
+ 0.181255 3 2 ping 64 ------- 0 4.1 0.1 -1 8
- 0.181255 3 2 ping 64 ------- 0 4.1 0.1 -1 8
r 0.185412 2 0 ack 40 ------- 1 4.0 0.0 0 7
+ 0.185412 0 2 tcp 1000 ------- 1 0.0 4.0 1 9
- 0.185412 0 2 tcp 1000 ------- 1 0.0 4.0 1 9
r 0.187375 3 2 ping 64 ------- 0 4.1 0.1 -1 8
+ 0.187375 2 0 ping 64 ------- 0 4.1 0.1 -1 8
- 0.187375 2 0 ping 64 ------- 0 4.1 0.1 -1 8
r 0.190492 0 2 tcp 1000 ------- 1 0.0 4.0 1 9
+ 0.190492 2 3 tcp 1000 ------- 1 0.0 4.0 1 9
r 0.19238 2 0 ping 64 ------- 0 4.1 0.1 -1 8
- 0.250245 2 3 tcp 1000 ------- 1 0.0 4.0 1 9
r 0.251245 2 3 tcp 1000 ------- 2 1.0 5.0 1 6
+ 0.251245 3 5 tcp 1000 ------- 2 1.0 5.0 1 6
- 0.251245 3 5 tcp 1000 ------- 2 1.0 5.0 1 6
r 0.251325 3 5 tcp 1000 ------- 2 1.0 5.0 1 6
+ 0.251325 5 3 ack 40 ------- 2 5.0 1.0 1 10
- 0.251325 5 3 ack 40 ------- 2 5.0 1.0 1 10
r 0.251328 5 3 ack 40 ------- 2 5.0 1.0 1 10
+ 0.251328 3 2 ack 40 ------- 2 5.0 1.0 1 10
- 0.251328 3 2 ack 40 ------- 2 5.0 1.0 1 10
r 0.255528 3 2 ack 40 ------- 2 5.0 1.0 1 10
+ 0.255528 2 1 ack 40 ------- 2 5.0 1.0 1 10
- 0.255528 2 1 ack 40 ------- 2 5.0 1.0 1 10
r 0.255532 2 1 ack 40 ------- 2 5.0 1.0 1 10
+ 0.255532 1 2 tcp 1000 ------- 2 1.0 5.0 2 11
- 0.255532 1 2 tcp 1000 ------- 2 1.0 5.0 2 11
+ 0.255532 1 2 tcp 1000 ------- 2 1.0 5.0 3 12
+ 0.255532 1 2 tcp 1000 ------- 2 1.0 5.0 4 13
r 0.255612 1 2 tcp 1000 ------- 2 1.0 5.0 2 11
+ 0.255612 2 3 tcp 1000 ------- 2 1.0 5.0 2 11
- 0.255612 1 2 tcp 1000 ------- 2 1.0 5.0 3 12
r 0.255692 1 2 tcp 1000 ------- 2 1.0 5.0 3 12
+ 0.255692 2 3 tcp 1000 ------- 2 1.0 5.0 3 12
- 0.255692 1 2 tcp 1000 ------- 2 1.0 5.0 4 13
r 0.255772 1 2 tcp 1000 ------- 2 1.0 5.0 4 13
+ 0.255772 2 3 tcp 1000 ------- 2 1.0 5.0 4 13
- 0.330245 2 3 tcp 1000 ------- 2 1.0 5.0 2 11
r 0.331245 2 3 tcp 1000 ------- 1 0.0 4.0 1 9
+ 0.331245 3 4 tcp 1000 ------- 1 0.0 4.0 1 9
- 0.331245 3 4 tcp 1000 ------- 1 0.0 4.0 1 9
r 0.336325 3 4 tcp 1000 ------- 1 0.0 4.0 1 9
+ 0.336325 4 3 ack 40 ------- 1 4.0 0.0 1 14
- 0.336325 4 3 ack 40 ------- 1 4.0 0.0 1 14
r 0.341328 4 3 ack 40 ------- 1 4.0 0.0 1 14
+ 0.341328 3 2 ack 40 ------- 1 4.0 0.0 1 14
- 0.341328 3 2 ack 40 ------- 1 4.0 0.0 1 14
r 0.345528 3 2 ack 40 ------- 1 4.0 0.0 1 14
+ 0.345528 2 0 ack 40 ------- 1 4.0 0.0 1 14
- 0.345528 2 0 ack 40 ------- 1 4.0 0.0 1 14
r 0.350532 2 0 ack 40 ------- 1 4.0 0.0 1 14
+ 0.350532 0 2 tcp 1000 ------- 1 0.0 4.0 2 15
- 0.350532 0 2 tcp 1000 ------- 1 0.0 4.0 2 15
+ 0.350532 0 2 tcp 1000 ------- 1 0.0 4.0 3 16
+ 0.350532 0 2 tcp 1000 ------- 1 0.0 4.0 4 17
- 0.350612 0 2 tcp 1000 ------- 1 0.0 4.0 3 16
- 0.350692 0 2 tcp 1000 ------- 1 0.0 4.0 4 17
r 0.355612 0 2 tcp 1000 ------- 1 0.0 4.0 2 15
+ 0.355612 2 3 tcp 1000 ------- 1 0.0 4.0 2 15
r 0.355692 0 2 tcp 1000 ------- 1 0.0 4.0 3 16
+ 0.355692 2 3 tcp 1000 ------- 1 0.0 4.0 3 16
r 0.355772 0 2 tcp 1000 ------- 1 0.0 4.0 4 17
+ 0.355772 2 3 tcp 1000 ------- 1 0.0 4.0 4 17
- 0.410245 2 3 tcp 1000 ------- 2 1.0 5.0 3 12
r 0.411245 2 3 tcp 1000 ------- 2 1.0 5.0 2 11
+ 0.411245 3 5 tcp 1000 ------- 2 1.0 5.0 2 11
- 0.411245 3 5 tcp 1000 ------- 2 1.0 5.0 2 11
r 0.411325 3 5 tcp 1000 ------- 2 1.0 5.0 2 11
+ 0.411325 5 3 ack 40 ------- 2 5.0 1.0 2 18
- 0.411325 5 3 ack 40 ------- 2 5.0 1.0 2 18
r 0.411328 5 3 ack 40 ------- 2 5.0 1.0 2 18
+ 0.411328 3 2 ack 40 ------- 2 5.0 1.0 2 18
- 0.411328 3 2 ack 40 ------- 2 5.0 1.0 2 18
r 0.415528 3 2 ack 40 ------- 2 5.0 1.0 2 18
+ 0.415528 2 1 ack 40 ------- 2 5.0 1.0 2 18
- 0.415528 2 1 ack 40 ------- 2 5.0 1.0 2 18
r 0.415532 2 1 ack 40 ------- 2 5.0 1.0 2 18
+ 0.415532 1 2 tcp 1000 ------- 2 1.0 5.0 5 19
- 0.415532 1 2 tcp 1000 ------- 2 1.0 5.0 5 19
r 0.415612 1 2 tcp 1000 ------- 2 1.0 5.0 5 19
+ 0.415612 2 3 tcp 1000 ------- 2 1.0 5.0 5 19
- 0.490245 2 3 tcp 1000 ------- 2 1.0 5.0 4 13
r 0.491245 2 3 tcp 1000 ------- 2 1.0 5.0 3 12
+ 0.491245 3 5 tcp 1000 ------- 2 1.0 5.0 3 12
- 0.491245 3 5 tcp 1000 ------- 2 1.0 5.0 3 12
r 0.491325 3 5 tcp 1000 ------- 2 1.0 5.0 3 12
+ 0.491325 5 3 ack 40 ------- 2 5.0 1.0 3 20
- 0.491325 5 3 ack 40 ------- 2 5.0 1.0 3 20
r 0.491328 5 3 ack 40 ------- 2 5.0 1.0 3 20
+ 0.491328 3 2 ack 40 ------- 2 5.0 1.0 3 20
- 0.491328 3 2 ack 40 ------- 2 5.0 1.0 3 20
r 0.495528 3 2 ack 40 ------- 2 5.0 1.0 3 20
+ 0.495528 2 1 ack 40 ------- 2 5.0 1.0 3 20
- 0.495528 2 1 ack 40 ------- 2 5.0 1.0 3 20
r 0.495532 2 1 ack 40 ------- 2 5.0 1.0 3 20
+ 0.495532 1 2 tcp 1000 ------- 2 1.0 5.0 6 21
- 0.495532 1 2 tcp 1000 ------- 2 1.0 5.0 6 21
r 0.495612 1 2 tcp 1000 ------- 2 1.0 5.0 6 21
+ 0.495612 2 3 tcp 1000 ------- 2 1.0 5.0 6 21
- 0.570245 2 3 tcp 1000 ------- 1 0.0 4.0 2 15
r 0.571245 2 3 tcp 1000 ------- 2 1.0 5.0 4 13
+ 0.571245 3 5 tcp 1000 ------- 2 1.0 5.0 4 13
- 0.571245 3 5 tcp 1000 ------- 2 1.0 5.0 4 13
r 0.571325 3 5 tcp 1000 ------- 2 1.0 5.0 4 13
+ 0.571325 5 3 ack 40 ------- 2 5.0 1.0 4 22
- 0.571325 5 3 ack 40 ------- 2 5.0 1.0 4 22
r 0.571328 5 3 ack 40 ------- 2 5.0 1.0 4 22
+ 0.571328 3 2 ack 40 ------- 2 5.0 1.0 4 22
- 0.571328 3 2 ack 40 ------- 2 5.0 1.0 4 22
r 0.575528 3 2 ack 40 ------- 2 5.0 1.0 4 22
+ 0.575528 2 1 ack 40 ------- 2 5.0 1.0 4 22
- 0.575528 2 1 ack 40 ------- 2 5.0 1.0 4 22
r 0.575532 2 1 ack 40 ------- 2 5.0 1.0 4 22
+ 0.575532 1 2 tcp 1000 ------- 2 1.0 5.0 7 23
- 0.575532 1 2 tcp 1000 ------- 2 1.0 5.0 7 23
r 0.575612 1 2 tcp 1000 ------- 2 1.0 5.0 7 23
+ 0.575612 2 3 tcp 1000 ------- 2 1.0 5.0 7 23
- 0.650245 2 3 tcp 1000 ------- 1 0.0 4.0 3 16
r 0.651245 2 3 tcp 1000 ------- 1 0.0 4.0 2 15
+ 0.651245 3 4 tcp 1000 ------- 1 0.0 4.0 2 15
- 0.651245 3 4 tcp 1000 ------- 1 0.0 4.0 2 15
r 0.656325 3 4 tcp 1000 ------- 1 0.0 4.0 2 15
+ 0.656325 4 3 ack 40 ------- 1 4.0 0.0 2 24
- 0.656325 4 3 ack 40 ------- 1 4.0 0.0 2 24
r 0.661328 4 3 ack 40 ------- 1 4.0 0.0 2 24
+ 0.661328 3 2 ack 40 ------- 1 4.0 0.0 2 24
- 0.661328 3 2 ack 40 ------- 1 4.0 0.0 2 24
r 0.665528 3 2 ack 40 ------- 1 4.0 0.0 2 24
+ 0.665528 2 0 ack 40 ------- 1 4.0 0.0 2 24
- 0.665528 2 0 ack 40 ------- 1 4.0 0.0 2 24
r 0.670532 2 0 ack 40 ------- 1 4.0 0.0 2 24
+ 0.670532 0 2 tcp 1000 ------- 1 0.0 4.0 5 25
- 0.670532 0 2 tcp 1000 ------- 1 0.0 4.0 5 25
r 0.675612 0 2 tcp 1000 ------- 1 0.0 4.0 5 25
+ 0.675612 2 3 tcp 1000 ------- 1 0.0 4.0 5 25
- 0.730245 2 3 tcp 1000 ------- 1 0.0 4.0 4 17
r 0.731245 2 3 tcp 1000 ------- 1 0.0 4.0 3 16
+ 0.731245 3 4 tcp 1000 ------- 1 0.0 4.0 3 16
- 0.731245 3 4 tcp 1000 ------- 1 0.0 4.0 3 16
r 0.736325 3 4 tcp 1000 ------- 1 0.0 4.0 3 16
+ 0.736325 4 3 ack 40 ------- 1 4.0 0.0 3 26
- 0.736325 4 3 ack 40 ------- 1 4.0 0.0 3 26
r 0.741328 4 3 ack 40 ------- 1 4.0 0.0 3 26
+ 0.741328 3 2 ack 40 ------- 1 4.0 0.0 3 26
- 0.741328 3 2 ack 40 ------- 1 4.0 0.0 3 26
r 0.745528 3 2 ack 40 ------- 1 4.0 0.0 3 26
+ 0.745528 2 0 ack 40 ------- 1 4.0 0.0 3 26
- 0.745528 2 0 ack 40 ------- 1 4.0 0.0 3 26
r 0.750532 2 0 ack 40 ------- 1 4.0 0.0 3 26
+ 0.750532 0 2 tcp 1000 ------- 1 0.0 4.0 6 27
- 0.750532 0 2 tcp 1000 ------- 1 0.0 4.0 6 27
r 0.755612 0 2 tcp 1000 ------- 1 0.0 4.0 6 27
+ 0.755612 2 3 tcp 1000 ------- 1 0.0 4.0 6 27
- 0.810245 2 3 tcp 1000 ------- 2 1.0 5.0 5 19
r 0.811245 2 3 tcp 1000 ------- 1 0.0 4.0 4 17
+ 0.811245 3 4 tcp 1000 ------- 1 0.0 4.0 4 17
- 0.811245 3 4 tcp 1000 ------- 1 0.0 4.0 4 17
r 0.816325 3 4 tcp 1000 ------- 1 0.0 4.0 4 17
+ 0.816325 4 3 ack 40 ------- 1 4.0 0.0 4 28
- 0.816325 4 3 ack 40 ------- 1 4.0 0.0 4 28
r 0.821328 4 3 ack 40 ------- 1 4.0 0.0 4 28
+ 0.821328 3 2 ack 40 ------- 1 4.0 0.0 4 28
- 0.821328 3 2 ack 40 ------- 1 4.0 0.0 4 28
r 0.825528 3 2 ack 40 ------- 1 4.0 0.0 4 28
+ 0.825528 2 0 ack 40 ------- 1 4.0 0.0 4 28
- 0.825528 2 0 ack 40 ------- 1 4.0 0.0 4 28
r 0.830532 2 0 ack 40 ------- 1 4.0 0.0 4 28
+ 0.830532 0 2 tcp 1000 ------- 1 0.0 4.0 7 29
- 0.830532 0 2 tcp 1000 ------- 1 0.0 4.0 7 29
r 0.835612 0 2 tcp 1000 ------- 1 0.0 4.0 7 29
+ 0.835612 2 3 tcp 1000 ------- 1 0.0 4.0 7 29
- 0.890245 2 3 tcp 1000 ------- 2 1.0 5.0 6 21
r 0.891245 2 3 tcp 1000 ------- 2 1.0 5.0 5 19
+ 0.891245 3 5 tcp 1000 ------- 2 1.0 5.0 5 19
- 0.891245 3 5 tcp 1000 ------- 2 1.0 5.0 5 19
r 0.891325 3 5 tcp 1000 ------- 2 1.0 5.0 5 19
+ 0.891325 5 3 ack 40 ------- 2 5.0 1.0 5 30
- 0.891325 5 3 ack 40 ------- 2 5.0 1.0 5 30
r 0.891328 5 3 ack 40 ------- 2 5.0 1.0 5 30
+ 0.891328 3 2 ack 40 ------- 2 5.0 1.0 5 30
- 0.891328 3 2 ack 40 ------- 2 5.0 1.0 5 30
r 0.895528 3 2 ack 40 ------- 2 5.0 1.0 5 30
+ 0.895528 2 1 ack 40 ------- 2 5.0 1.0 5 30
- 0.895528 2 1 ack 40 ------- 2 5.0 1.0 5 30
r 0.895532 2 1 ack 40 ------- 2 5.0 1.0 5 30
+ 0.895532 1 2 tcp 1000 ------- 2 1.0 5.0 8 31
- 0.895532 1 2 tcp 1000 ------- 2 1.0 5.0 8 31
+ 0.895532 1 2 tcp 1000 ------- 2 1.0 5.0 9 32
r 0.895612 1 2 tcp 1000 ------- 2 1.0 5.0 8 31
+ 0.895612 2 3 tcp 1000 ------- 2 1.0 5.0 8 31
- 0.895612 1 2 tcp 1000 ------- 2 1.0 5.0 9 32
r 0.895692 1 2 tcp 1000 ------- 2 1.0 5.0 9 32
+ 0.895692 2 3 tcp 1000 ------- 2 1.0 5.0 9 32
- 0.970245 2 3 tcp 1000 ------- 2 1.0 5.0 7 23
r 0.971245 2 3 tcp 1000 ------- 2 1.0 5.0 6 21
+ 0.971245 3 5 tcp 1000 ------- 2 1.0 5.0 6 21
- 0.971245 3 5 tcp 1000 ------- 2 1.0 5.0 6 21
r 0.971325 3 5 tcp 1000 ------- 2 1.0 5.0 6 21
+ 0.971325 5 3 ack 40 ------- 2 5.0 1.0 6 33
- 0.971325 5 3 ack 40 ------- 2 5.0 1.0 6 33
r 0.971328 5 3 ack 40 ------- 2 5.0 1.0 6 33
+ 0.971328 3 2 ack 40 ------- 2 5.0 1.0 6 33
- 0.971328 3 2 ack 40 ------- 2 5.0 1.0 6 33
r 0.975528 3 2 ack 40 ------- 2 5.0 1.0 6 33
+ 0.975528 2 1 ack 40 ------- 2 5.0 1.0 6 33
- 0.975528 2 1 ack 40 ------- 2 5.0 1.0 6 33
r 0.975532 2 1 ack 40 ------- 2 5.0 1.0 6 33
+ 0.975532 1 2 tcp 1000 ------- 2 1.0 5.0 10 34
- 0.975532 1 2 tcp 1000 ------- 2 1.0 5.0 10 34
+ 0.975532 1 2 tcp 1000 ------- 2 1.0 5.0 11 35
r 0.975612 1 2 tcp 1000 ------- 2 1.0 5.0 10 34
+ 0.975612 2 3 tcp 1000 ------- 2 1.0 5.0 10 34
- 0.975612 1 2 tcp 1000 ------- 2 1.0 5.0 11 35
r 0.975692 1 2 tcp 1000 ------- 2 1.0 5.0 11 35
+ 0.975692 2 3 tcp 1000 ------- 2 1.0 5.0 11 35
+ 1 0 2 ping 64 ------- 0 0.1 4.1 -1 36
- 1 0 2 ping 64 ------- 0 0.1 4.1 -1 36
+ 1 1 2 ping 64 ------- 0 1.1 5.1 -1 37
- 1 1 2 ping 64 ------- 0 1.1 5.1 -1 37
r 1.000005 1 2 ping 64 ------- 0 1.1 5.1 -1 37
+ 1.000005 2 3 ping 64 ------- 0 1.1 5.1 -1 37
r 1.005005 0 2 ping 64 ------- 0 0.1 4.1 -1 36
+ 1.005005 2 3 ping 64 ------- 0 0.1 4.1 -1 36
- 1.050245 2 3 tcp 1000 ------- 1 0.0 4.0 5 25
r 1.051245 2 3 tcp 1000 ------- 2 1.0 5.0 7 23
+ 1.051245 3 5 tcp 1000 ------- 2 1.0 5.0 7 23
- 1.051245 3 5 tcp 1000 ------- 2 1.0 5.0 7 23
r 1.051325 3 5 tcp 1000 ------- 2 1.0 5.0 7 23
+ 1.051325 5 3 ack 40 ------- 2 5.0 1.0 7 38
- 1.051325 5 3 ack 40 ------- 2 5.0 1.0 7 38
r 1.051328 5 3 ack 40 ------- 2 5.0 1.0 7 38
+ 1.051328 3 2 ack 40 ------- 2 5.0 1.0 7 38
- 1.051328 3 2 ack 40 ------- 2 5.0 1.0 7 38
r 1.055528 3 2 ack 40 ------- 2 5.0 1.0 7 38
+ 1.055528 2 1 ack 40 ------- 2 5.0 1.0 7 38
- 1.055528 2 1 ack 40 ------- 2 5.0 1.0 7 38
r 1.055532 2 1 ack 40 ------- 2 5.0 1.0 7 38
+ 1.055532 1 2 tcp 1000 ------- 2 1.0 5.0 12 39
- 1.055532 1 2 tcp 1000 ------- 2 1.0 5.0 12 39
+ 1.055532 1 2 tcp 1000 ------- 2 1.0 5.0 13 40
r 1.055612 1 2 tcp 1000 ------- 2 1.0 5.0 12 39
+ 1.055612 2 3 tcp 1000 ------- 2 1.0 5.0 12 39
- 1.055612 1 2 tcp 1000 ------- 2 1.0 5.0 13 40
r 1.055692 1 2 tcp 1000 ------- 2 1.0 5.0 13 40
+ 1.055692 2 3 tcp 1000 ------- 2 1.0 5.0 13 40
d 1.055692 2 3 tcp 1000 ------- 2 1.0 5.0 13 40
- 1.130245 2 3 tcp 1000 ------- 1 0.0 4.0 6 27
r 1.131245 2 3 tcp 1000 ------- 1 0.0 4.0 5 25
+ 1.131245 3 4 tcp 1000 ------- 1 0.0 4.0 5 25
- 1.131245 3 4 tcp 1000 ------- 1 0.0 4.0 5 25
r 1.136325 3 4 tcp 1000 ------- 1 0.0 4.0 5 25
+ 1.136325 4 3 ack 40 ------- 1 4.0 0.0 5 41
- 1.136325 4 3 ack 40 ------- 1 4.0 0.0 5 41
r 1.141328 4 3 ack 40 ------- 1 4.0 0.0 5 41
+ 1.141328 3 2 ack 40 ------- 1 4.0 0.0 5 41
- 1.141328 3 2 ack 40 ------- 1 4.0 0.0 5 41
r 1.145528 3 2 ack 40 ------- 1 4.0 0.0 5 41
+ 1.145528 2 0 ack 40 ------- 1 4.0 0.0 5 41
- 1.145528 2 0 ack 40 ------- 1 4.0 0.0 5 41
r 1.150532 2 0 ack 40 ------- 1 4.0 0.0 5 41
- 1.210245 2 3 tcp 1000 ------- 1 0.0 4.0 7 29
r 1.211245 2 3 tcp 1000 ------- 1 0.0 4.0 6 27
+ 1.211245 3 4 tcp 1000 ------- 1 0.0 4.0 6 27
- 1.211245 3 4 tcp 1000 ------- 1 0.0 4.0 6 27
r 1.216325 3 4 tcp 1000 ------- 1 0.0 4.0 6 27
+ 1.216325 4 3 ack 40 ------- 1 4.0 0.0 6 42
- 1.216325 4 3 ack 40 ------- 1 4.0 0.0 6 42
r 1.221328 4 3 ack 40 ------- 1 4.0 0.0 6 42
+ 1.221328 3 2 ack 40 ------- 1 4.0 0.0 6 42
- 1.221328 3 2 ack 40 ------- 1 4.0 0.0 6 42
r 1.225528 3 2 ack 40 ------- 1 4.0 0.0 6 42
+ 1.225528 2 0 ack 40 ------- 1 4.0 0.0 6 42
- 1.225528 2 0 ack 40 ------- 1 4.0 0.0 6 42
r 1.230532 2 0 ack 40 ------- 1 4.0 0.0 6 42
+ 1.230532 0 2 tcp 1000 ------- 1 0.0 4.0 8 43
- 1.230532 0 2 tcp 1000 ------- 1 0.0 4.0 8 43
r 1.235612 0 2 tcp 1000 ------- 1 0.0 4.0 8 43
+ 1.235612 2 3 tcp 1000 ------- 1 0.0 4.0 8 43
- 1.290245 2 3 tcp 1000 ------- 2 1.0 5.0 8 31
r 1.291245 2 3 tcp 1000 ------- 1 0.0 4.0 7 29
+ 1.291245 3 4 tcp 1000 ------- 1 0.0 4.0 7 29
- 1.291245 3 4 tcp 1000 ------- 1 0.0 4.0 7 29
r 1.296325 3 4 tcp 1000 ------- 1 0.0 4.0 7 29
+ 1.296325 4 3 ack 40 ------- 1 4.0 0.0 7 44
- 1.296325 4 3 ack 40 ------- 1 4.0 0.0 7 44
r 1.301328 4 3 ack 40 ------- 1 4.0 0.0 7 44
+ 1.301328 3 2 ack 40 ------- 1 4.0 0.0 7 44
- 1.301328 3 2 ack 40 ------- 1 4.0 0.0 7 44
r 1.305528 3 2 ack 40 ------- 1 4.0 0.0 7 44
+ 1.305528 2 0 ack 40 ------- 1 4.0 0.0 7 44
- 1.305528 2 0 ack 40 ------- 1 4.0 0.0 7 44
r 1.310532 2 0 ack 40 ------- 1 4.0 0.0 7 44
+ 1.310532 0 2 tcp 1000 ------- 1 0.0 4.0 9 45
- 1.310532 0 2 tcp 1000 ------- 1 0.0 4.0 9 45
r 1.315612 0 2 tcp 1000 ------- 1 0.0 4.0 9 45
+ 1.315612 2 3 tcp 1000 ------- 1 0.0 4.0 9 45
- 1.370245 2 3 tcp 1000 ------- 2 1.0 5.0 9 32
r 1.371245 2 3 tcp 1000 ------- 2 1.0 5.0 8 31
+ 1.371245 3 5 tcp 1000 ------- 2 1.0 5.0 8 31
- 1.371245 3 5 tcp 1000 ------- 2 1.0 5.0 8 31
r 1.371325 3 5 tcp 1000 ------- 2 1.0 5.0 8 31
+ 1.371325 5 3 ack 40 ------- 2 5.0 1.0 8 46
- 1.371325 5 3 ack 40 ------- 2 5.0 1.0 8 46
r 1.371328 5 3 ack 40 ------- 2 5.0 1.0 8 46
+ 1.371328 3 2 ack 40 ------- 2 5.0 1.0 8 46
- 1.371328 3 2 ack 40 ------- 2 5.0 1.0 8 46
r 1.375528 3 2 ack 40 ------- 2 5.0 1.0 8 46
+ 1.375528 2 1 ack 40 ------- 2 5.0 1.0 8 46
- 1.375528 2 1 ack 40 ------- 2 5.0 1.0 8 46
r 1.375532 2 1 ack 40 ------- 2 5.0 1.0 8 46
+ 1.375532 1 2 tcp 1000 ------- 2 1.0 5.0 14 47
- 1.375532 1 2 tcp 1000 ------- 2 1.0 5.0 14 47
r 1.375612 1 2 tcp 1000 ------- 2 1.0 5.0 14 47
+ 1.375612 2 3 tcp 1000 ------- 2 1.0 5.0 14 47
- 1.450245 2 3 tcp 1000 ------- 2 1.0 5.0 10 34
r 1.451245 2 3 tcp 1000 ------- 2 1.0 5.0 9 32
+ 1.451245 3 5 tcp 1000 ------- 2 1.0 5.0 9 32
- 1.451245 3 5 tcp 1000 ------- 2 1.0 5.0 9 32
r 1.451325 3 5 tcp 1000 ------- 2 1.0 5.0 9 32
+ 1.451325 5 3 ack 40 ------- 2 5.0 1.0 9 48
- 1.451325 5 3 ack 40 ------- 2 5.0 1.0 9 48
r 1.451328 5 3 ack 40 ------- 2 5.0 1.0 9 48
+ 1.451328 3 2 ack 40 ------- 2 5.0 1.0 9 48
- 1.451328 3 2 ack 40 ------- 2 5.0 1.0 9 48
r 1.455528 3 2 ack 40 ------- 2 5.0 1.0 9 48
+ 1.455528 2 1 ack 40 ------- 2 5.0 1.0 9 48
- 1.455528 2 1 ack 40 ------- 2 5.0 1.0 9 48
r 1.455532 2 1 ack 40 ------- 2 5.0 1.0 9 48
+ 1.455532 1 2 tcp 1000 ------- 2 1.0 5.0 15 49
- 1.455532 1 2 tcp 1000 ------- 2 1.0 5.0 15 49
r 1.455612 1 2 tcp 1000 ------- 2 1.0 5.0 15 49
+ 1.455612 2 3 tcp 1000 ------- 2 1.0 5.0 15 49
- 1.530245 2 3 tcp 1000 ------- 2 1.0 5.0 11 35
r 1.531245 2 3 tcp 1000 ------- 2 1.0 5.0 10 34
+ 1.531245 3 5 tcp 1000 ------- 2 1.0 5.0 10 34
- 1.531245 3 5 tcp 1000 ------- 2 1.0 5.0 10 34
r 1.531325 3 5 tcp 1000 ------- 2 1.0 5.0 10 34
+ 1.531325 5 3 ack 40 ------- 2 5.0 1.0 10 50
- 1.531325 5 3 ack 40 ------- 2 5.0 1.0 10 50
r 1.531328 5 3 ack 40 ------- 2 5.0 1.0 10 50
+ 1.531328 3 2 ack 40 ------- 2 5.0 1.0 10 50
- 1.531328 3 2 ack 40 ------- 2 5.0 1.0 10 50
r 1.535528 3 2 ack 40 ------- 2 5.0 1.0 10 50
+ 1.535528 2 1 ack 40 ------- 2 5.0 1.0 10 50
- 1.535528 2 1 ack 40 ------- 2 5.0 1.0 10 50
r 1.535532 2 1 ack 40 ------- 2 5.0 1.0 10 50
+ 1.535532 1 2 tcp 1000 ------- 2 1.0 5.0 16 51
- 1.535532 1 2 tcp 1000 ------- 2 1.0 5.0 16 51
r 1.535612 1 2 tcp 1000 ------- 2 1.0 5.0 16 51
+ 1.535612 2 3 tcp 1000 ------- 2 1.0 5.0 16 51
- 1.610245 2 3 ping 64 ------- 0 1.1 5.1 -1 37
r 1.611245 2 3 tcp 1000 ------- 2 1.0 5.0 11 35
+ 1.611245 3 5 tcp 1000 ------- 2 1.0 5.0 11 35
- 1.611245 3 5 tcp 1000 ------- 2 1.0 5.0 11 35
r 1.611325 3 5 tcp 1000 ------- 2 1.0 5.0 11 35
+ 1.611325 5 3 ack 40 ------- 2 5.0 1.0 11 52
- 1.611325 5 3 ack 40 ------- 2 5.0 1.0 11 52
r 1.611328 5 3 ack 40 ------- 2 5.0 1.0 11 52
+ 1.611328 3 2 ack 40 ------- 2 5.0 1.0 11 52
- 1.611328 3 2 ack 40 ------- 2 5.0 1.0 11 52
- 1.615365 2 3 ping 64 ------- 0 0.1 4.1 -1 36
r 1.615528 3 2 ack 40 ------- 2 5.0 1.0 11 52
+ 1.615528 2 1 ack 40 ------- 2 5.0 1.0 11 52
- 1.615528 2 1 ack 40 ------- 2 5.0 1.0 11 52
r 1.615532 2 1 ack 40 ------- 2 5.0 1.0 11 52
+ 1.615532 1 2 tcp 1000 ------- 2 1.0 5.0 17 53
- 1.615532 1 2 tcp 1000 ------- 2 1.0 5.0 17 53
r 1.615612 1 2 tcp 1000 ------- 2 1.0 5.0 17 53
+ 1.615612 2 3 tcp 1000 ------- 2 1.0 5.0 17 53
r 1.616365 2 3 ping 64 ------- 0 1.1 5.1 -1 37
+ 1.616365 3 5 ping 64 ------- 0 1.1 5.1 -1 37
- 1.616365 3 5 ping 64 ------- 0 1.1 5.1 -1 37
r 1.61637 3 5 ping 64 ------- 0 1.1 5.1 -1 37
+ 1.61637 5 3 ping 64 ------- 0 5.1 1.1 -1 54
- 1.61637 5 3 ping 64 ------- 0 5.1 1.1 -1 54
r 1.616375 5 3 ping 64 ------- 0 5.1 1.1 -1 54
+ 1.616375 3 2 ping 64 ------- 0 5.1 1.1 -1 54
- 1.616375 3 2 ping 64 ------- 0 5.1 1.1 -1 54
- 1.620485 2 3 tcp 1000 ------- 2 1.0 5.0 12 39
r 1.621485 2 3 ping 64 ------- 0 0.1 4.1 -1 36
+ 1.621485 3 4 ping 64 ------- 0 0.1 4.1 -1 36
- 1.621485 3 4 ping 64 ------- 0 0.1 4.1 -1 36
r 1.622495 3 2 ping 64 ------- 0 5.1 1.1 -1 54
+ 1.622495 2 1 ping 64 ------- 0 5.1 1.1 -1 54
- 1.622495 2 1 ping 64 ------- 0 5.1 1.1 -1 54
r 1.6225 2 1 ping 64 ------- 0 5.1 1.1 -1 54
r 1.62649 3 4 ping 64 ------- 0 0.1 4.1 -1 36
+ 1.62649 4 3 ping 64 ------- 0 4.1 0.1 -1 55
- 1.62649 4 3 ping 64 ------- 0 4.1 0.1 -1 55
r 1.631495 4 3 ping 64 ------- 0 4.1 0.1 -1 55
+ 1.631495 3 2 ping 64 ------- 0 4.1 0.1 -1 55
- 1.631495 3 2 ping 64 ------- 0 4.1 0.1 -1 55
r 1.637615 3 2 ping 64 ------- 0 4.1 0.1 -1 55
+ 1.637615 2 0 ping 64 ------- 0 4.1 0.1 -1 55
- 1.637615 2 0 ping 64 ------- 0 4.1 0.1 -1 55
r 1.64262 2 0 ping 64 ------- 0 4.1 0.1 -1 55
- 1.700485 2 3 tcp 1000 ------- 1 0.0 4.0 8 43
r 1.701485 2 3 tcp 1000 ------- 2 1.0 5.0 12 39
+ 1.701485 3 5 tcp 1000 ------- 2 1.0 5.0 12 39
- 1.701485 3 5 tcp 1000 ------- 2 1.0 5.0 12 39
r 1.701565 3 5 tcp 1000 ------- 2 1.0 5.0 12 39
+ 1.701565 5 3 ack 40 ------- 2 5.0 1.0 12 56
- 1.701565 5 3 ack 40 ------- 2 5.0 1.0 12 56
r 1.701568 5 3 ack 40 ------- 2 5.0 1.0 12 56
+ 1.701568 3 2 ack 40 ------- 2 5.0 1.0 12 56
- 1.701568 3 2 ack 40 ------- 2 5.0 1.0 12 56
r 1.705768 3 2 ack 40 ------- 2 5.0 1.0 12 56
+ 1.705768 2 1 ack 40 ------- 2 5.0 1.0 12 56
- 1.705768 2 1 ack 40 ------- 2 5.0 1.0 12 56
r 1.705772 2 1 ack 40 ------- 2 5.0 1.0 12 56
+ 1.705772 1 2 tcp 1000 ------- 2 1.0 5.0 18 57
- 1.705772 1 2 tcp 1000 ------- 2 1.0 5.0 18 57
r 1.705852 1 2 tcp 1000 ------- 2 1.0 5.0 18 57
+ 1.705852 2 3 tcp 1000 ------- 2 1.0 5.0 18 57
- 1.780485 2 3 tcp 1000 ------- 1 0.0 4.0 9 45
r 1.781485 2 3 tcp 1000 ------- 1 0.0 4.0 8 43
+ 1.781485 3 4 tcp 1000 ------- 1 0.0 4.0 8 43
- 1.781485 3 4 tcp 1000 ------- 1 0.0 4.0 8 43
r 1.786565 3 4 tcp 1000 ------- 1 0.0 4.0 8 43
+ 1.786565 4 3 ack 40 ------- 1 4.0 0.0 8 58
- 1.786565 4 3 ack 40 ------- 1 4.0 0.0 8 58
r 1.791568 4 3 ack 40 ------- 1 4.0 0.0 8 58
+ 1.791568 3 2 ack 40 ------- 1 4.0 0.0 8 58
- 1.791568 3 2 ack 40 ------- 1 4.0 0.0 8 58
r 1.795768 3 2 ack 40 ------- 1 4.0 0.0 8 58
+ 1.795768 2 0 ack 40 ------- 1 4.0 0.0 8 58
- 1.795768 2 0 ack 40 ------- 1 4.0 0.0 8 58
r 1.800772 2 0 ack 40 ------- 1 4.0 0.0 8 58
+ 1.800772 0 2 tcp 1000 ------- 1 0.0 4.0 10 59
- 1.800772 0 2 tcp 1000 ------- 1 0.0 4.0 10 59
r 1.805852 0 2 tcp 1000 ------- 1 0.0 4.0 10 59
+ 1.805852 2 3 tcp 1000 ------- 1 0.0 4.0 10 59
- 1.860485 2 3 tcp 1000 ------- 2 1.0 5.0 14 47
r 1.861485 2 3 tcp 1000 ------- 1 0.0 4.0 9 45
+ 1.861485 3 4 tcp 1000 ------- 1 0.0 4.0 9 45
- 1.861485 3 4 tcp 1000 ------- 1 0.0 4.0 9 45
r 1.866565 3 4 tcp 1000 ------- 1 0.0 4.0 9 45
+ 1.866565 4 3 ack 40 ------- 1 4.0 0.0 9 60
- 1.866565 4 3 ack 40 ------- 1 4.0 0.0 9 60
r 1.871568 4 3 ack 40 ------- 1 4.0 0.0 9 60
+ 1.871568 3 2 ack 40 ------- 1 4.0 0.0 9 60
- 1.871568 3 2 ack 40 ------- 1 4.0 0.0 9 60
r 1.875768 3 2 ack 40 ------- 1 4.0 0.0 9 60
+ 1.875768 2 0 ack 40 ------- 1 4.0 0.0 9 60
- 1.875768 2 0 ack 40 ------- 1 4.0 0.0 9 60
r 1.880772 2 0 ack 40 ------- 1 4.0 0.0 9 60
+ 1.880772 0 2 tcp 1000 ------- 1 0.0 4.0 11 61
- 1.880772 0 2 tcp 1000 ------- 1 0.0 4.0 11 61
r 1.885852 0 2 tcp 1000 ------- 1 0.0 4.0 11 61
+ 1.885852 2 3 tcp 1000 ------- 1 0.0 4.0 11 61
- 1.940485 2 3 tcp 1000 ------- 2 1.0 5.0 15 49
r 1.941485 2 3 tcp 1000 ------- 2 1.0 5.0 14 47
+ 1.941485 3 5 tcp 1000 ------- 2 1.0 5.0 14 47
- 1.941485 3 5 tcp 1000 ------- 2 1.0 5.0 14 47
r 1.941565 3 5 tcp 1000 ------- 2 1.0 5.0 14 47
+ 1.941565 5 3 ack 40 ------- 2 5.0 1.0 12 62
- 1.941565 5 3 ack 40 ------- 2 5.0 1.0 12 62
r 1.941568 5 3 ack 40 ------- 2 5.0 1.0 12 62
+ 1.941568 3 2 ack 40 ------- 2 5.0 1.0 12 62
- 1.941568 3 2 ack 40 ------- 2 5.0 1.0 12 62
r 1.945768 3 2 ack 40 ------- 2 5.0 1.0 12 62
+ 1.945768 2 1 ack 40 ------- 2 5.0 1.0 12 62
- 1.945768 2 1 ack 40 ------- 2 5.0 1.0 12 62
r 1.945772 2 1 ack 40 ------- 2 5.0 1.0 12 62
+ 2 0 2 ping 64 ------- 0 0.1 4.1 -1 63
- 2 0 2 ping 64 ------- 0 0.1 4.1 -1 63
+ 2 1 2 ping 64 ------- 0 1.1 5.1 -1 64
- 2 1 2 ping 64 ------- 0 1.1 5.1 -1 64
r 2.000005 1 2 ping 64 ------- 0 1.1 5.1 -1 64
+ 2.000005 2 3 ping 64 ------- 0 1.1 5.1 -1 64
r 2.005005 0 2 ping 64 ------- 0 0.1 4.1 -1 63
+ 2.005005 2 3 ping 64 ------- 0 0.1 4.1 -1 63
- 2.020485 2 3 tcp 1000 ------- 2 1.0 5.0 16 51
r 2.021485 2 3 tcp 1000 ------- 2 1.0 5.0 15 49
+ 2.021485 3 5 tcp 1000 ------- 2 1.0 5.0 15 49
- 2.021485 3 5 tcp 1000 ------- 2 1.0 5.0 15 49
r 2.021565 3 5 tcp 1000 ------- 2 1.0 5.0 15 49
+ 2.021565 5 3 ack 40 ------- 2 5.0 1.0 12 65
- 2.021565 5 3 ack 40 ------- 2 5.0 1.0 12 65
r 2.021568 5 3 ack 40 ------- 2 5.0 1.0 12 65
+ 2.021568 3 2 ack 40 ------- 2 5.0 1.0 12 65
- 2.021568 3 2 ack 40 ------- 2 5.0 1.0 12 65
r 2.025768 3 2 ack 40 ------- 2 5.0 1.0 12 65
+ 2.025768 2 1 ack 40 ------- 2 5.0 1.0 12 65
- 2.025768 2 1 ack 40 ------- 2 5.0 1.0 12 65
r 2.025772 2 1 ack 40 ------- 2 5.0 1.0 12 65
- 2.100485 2 3 tcp 1000 ------- 2 1.0 5.0 17 53
r 2.101485 2 3 tcp 1000 ------- 2 1.0 5.0 16 51
+ 2.101485 3 5 tcp 1000 ------- 2 1.0 5.0 16 51
- 2.101485 3 5 tcp 1000 ------- 2 1.0 5.0 16 51
r 2.101565 3 5 tcp 1000 ------- 2 1.0 5.0 16 51
+ 2.101565 5 3 ack 40 ------- 2 5.0 1.0 12 66
- 2.101565 5 3 ack 40 ------- 2 5.0 1.0 12 66
r 2.101568 5 3 ack 40 ------- 2 5.0 1.0 12 66
+ 2.101568 3 2 ack 40 ------- 2 5.0 1.0 12 66
- 2.101568 3 2 ack 40 ------- 2 5.0 1.0 12 66
r 2.105768 3 2 ack 40 ------- 2 5.0 1.0 12 66
+ 2.105768 2 1 ack 40 ------- 2 5.0 1.0 12 66
- 2.105768 2 1 ack 40 ------- 2 5.0 1.0 12 66
r 2.105772 2 1 ack 40 ------- 2 5.0 1.0 12 66
+ 2.105772 1 2 tcp 1000 ------- 2 1.0 5.0 13 67
- 2.105772 1 2 tcp 1000 ------- 2 1.0 5.0 13 67
+ 2.105772 1 2 tcp 1000 ------- 2 1.0 5.0 19 68
+ 2.105772 1 2 tcp 1000 ------- 2 1.0 5.0 20 69
r 2.105852 1 2 tcp 1000 ------- 2 1.0 5.0 13 67
+ 2.105852 2 3 tcp 1000 ------- 2 1.0 5.0 13 67
- 2.105852 1 2 tcp 1000 ------- 2 1.0 5.0 19 68
r 2.105932 1 2 tcp 1000 ------- 2 1.0 5.0 19 68
+ 2.105932 2 3 tcp 1000 ------- 2 1.0 5.0 19 68
- 2.105932 1 2 tcp 1000 ------- 2 1.0 5.0 20 69
r 2.106012 1 2 tcp 1000 ------- 2 1.0 5.0 20 69
+ 2.106012 2 3 tcp 1000 ------- 2 1.0 5.0 20 69
- 2.180485 2 3 tcp 1000 ------- 2 1.0 5.0 18 57
r 2.181485 2 3 tcp 1000 ------- 2 1.0 5.0 17 53
+ 2.181485 3 5 tcp 1000 ------- 2 1.0 5.0 17 53
- 2.181485 3 5 tcp 1000 ------- 2 1.0 5.0 17 53
r 2.181565 3 5 tcp 1000 ------- 2 1.0 5.0 17 53
+ 2.181565 5 3 ack 40 ------- 2 5.0 1.0 12 70
- 2.181565 5 3 ack 40 ------- 2 5.0 1.0 12 70
r 2.181568 5 3 ack 40 ------- 2 5.0 1.0 12 70
+ 2.181568 3 2 ack 40 ------- 2 5.0 1.0 12 70
- 2.181568 3 2 ack 40 ------- 2 5.0 1.0 12 70
r 2.185768 3 2 ack 40 ------- 2 5.0 1.0 12 70
+ 2.185768 2 1 ack 40 ------- 2 5.0 1.0 12 70
- 2.185768 2 1 ack 40 ------- 2 5.0 1.0 12 70
r 2.185772 2 1 ack 40 ------- 2 5.0 1.0 12 70
+ 2.185772 1 2 tcp 1000 ------- 2 1.0 5.0 21 71
- 2.185772 1 2 tcp 1000 ------- 2 1.0 5.0 21 71
r 2.185852 1 2 tcp 1000 ------- 2 1.0 5.0 21 71
+ 2.185852 2 3 tcp 1000 ------- 2 1.0 5.0 21 71
- 2.260485 2 3 tcp 1000 ------- 1 0.0 4.0 10 59
r 2.261485 2 3 tcp 1000 ------- 2 1.0 5.0 18 57
+ 2.261485 3 5 tcp 1000 ------- 2 1.0 5.0 18 57
- 2.261485 3 5 tcp 1000 ------- 2 1.0 5.0 18 57
r 2.261565 3 5 tcp 1000 ------- 2 1.0 5.0 18 57
+ 2.261565 5 3 ack 40 ------- 2 5.0 1.0 12 72
- 2.261565 5 3 ack 40 ------- 2 5.0 1.0 12 72
r 2.261568 5 3 ack 40 ------- 2 5.0 1.0 12 72
+ 2.261568 3 2 ack 40 ------- 2 5.0 1.0 12 72
- 2.261568 3 2 ack 40 ------- 2 5.0 1.0 12 72
r 2.265768 3 2 ack 40 ------- 2 5.0 1.0 12 72
+ 2.265768 2 1 ack 40 ------- 2 5.0 1.0 12 72
- 2.265768 2 1 ack 40 ------- 2 5.0 1.0 12 72
r 2.265772 2 1 ack 40 ------- 2 5.0 1.0 12 72
+ 2.265772 1 2 tcp 1000 ------- 2 1.0 5.0 22 73
- 2.265772 1 2 tcp 1000 ------- 2 1.0 5.0 22 73
r 2.265852 1 2 tcp 1000 ------- 2 1.0 5.0 22 73
+ 2.265852 2 3 tcp 1000 ------- 2 1.0 5.0 22 73
- 2.340485 2 3 tcp 1000 ------- 1 0.0 4.0 11 61
r 2.341485 2 3 tcp 1000 ------- 1 0.0 4.0 10 59
+ 2.341485 3 4 tcp 1000 ------- 1 0.0 4.0 10 59
- 2.341485 3 4 tcp 1000 ------- 1 0.0 4.0 10 59
r 2.346565 3 4 tcp 1000 ------- 1 0.0 4.0 10 59
+ 2.346565 4 3 ack 40 ------- 1 4.0 0.0 10 74
- 2.346565 4 3 ack 40 ------- 1 4.0 0.0 10 74
r 2.351568 4 3 ack 40 ------- 1 4.0 0.0 10 74
+ 2.351568 3 2 ack 40 ------- 1 4.0 0.0 10 74
- 2.351568 3 2 ack 40 ------- 1 4.0 0.0 10 74
r 2.355768 3 2 ack 40 ------- 1 4.0 0.0 10 74
+ 2.355768 2 0 ack 40 ------- 1 4.0 0.0 10 74
- 2.355768 2 0 ack 40 ------- 1 4.0 0.0 10 74
r 2.360772 2 0 ack 40 ------- 1 4.0 0.0 10 74
+ 2.360772 0 2 tcp 1000 ------- 1 0.0 4.0 12 75
- 2.360772 0 2 tcp 1000 ------- 1 0.0 4.0 12 75
r 2.365852 0 2 tcp 1000 ------- 1 0.0 4.0 12 75
+ 2.365852 2 3 tcp 1000 ------- 1 0.0 4.0 12 75
- 2.420485 2 3 ping 64 ------- 0 1.1 5.1 -1 64
r 2.421485 2 3 tcp 1000 ------- 1 0.0 4.0 11 61
+ 2.421485 3 4 tcp 1000 ------- 1 0.0 4.0 11 61
- 2.421485 3 4 tcp 1000 ------- 1 0.0 4.0 11 61
- 2.425605 2 3 ping 64 ------- 0 0.1 4.1 -1 63
r 2.426565 3 4 tcp 1000 ------- 1 0.0 4.0 11 61
+ 2.426565 4 3 ack 40 ------- 1 4.0 0.0 11 76
- 2.426565 4 3 ack 40 ------- 1 4.0 0.0 11 76
r 2.426605 2 3 ping 64 ------- 0 1.1 5.1 -1 64
+ 2.426605 3 5 ping 64 ------- 0 1.1 5.1 -1 64
- 2.426605 3 5 ping 64 ------- 0 1.1 5.1 -1 64
r 2.42661 3 5 ping 64 ------- 0 1.1 5.1 -1 64
+ 2.42661 5 3 ping 64 ------- 0 5.1 1.1 -1 77
- 2.42661 5 3 ping 64 ------- 0 5.1 1.1 -1 77