+ 0 0 2 tcp 40 ------- 1 0.0 4.0 0 0
- 0 0 2 tcp 40 ------- 1 0.0 4.0 0 0
+ 0 0 2 ping 64 ------- 0 0.1 4.1 -1 1
+ 0 1 2 ping 64 ------- 0 1.1 5.1 -1 2
- 0 1 2 ping 64 ------- 0 1.1 5.1 -1 2
+ 0 1 2 tcp 40 ------- 2 1.0 5.0 0 3
- 3e-06 0 2 ping 64 ------- 0 0.1 4.1 -1 1
r 5e-06 1 2 ping 64 ------- 0 1.1 5.1 -1 2
+ 5e-06 2 3 ping 64 ------- 0 1.1 5.1 -1 2
- 5e-06 2 3 ping 64 ------- 0 1.1 5.1 -1 2
- 5e-06 1 2 tcp 40 ------- 2 1.0 5.0 0 3
r 8e-06 1 2 tcp 40 ------- 2 1.0 5.0 0 3
+ 8e-06 2 3 tcp 40 ------- 2 1.0 5.0 0 3
r 0.005003 0 2 tcp 40 ------- 1 0.0 4.0 0 0
+ 0.005003 2 3 tcp 40 ------- 1 0.0 4.0 0 0
r 0.005008 0 2 ping 64 ------- 0 0.1 4.1 -1 1
+ 0.005008 2 3 ping 64 ------- 0 0.1 4.1 -1 1
- 0.005125 2 3 tcp 40 ------- 2 1.0 5.0 0 3
r 0.006125 2 3 ping 64 ------- 0 1.1 5.1 -1 2
+ 0.006125 3 5 ping 64 ------- 0 1.1 5.1 -1 2
- 0.006125 3 5 ping 64 ------- 0 1.1 5.1 -1 2
r 0.00613 3 5 ping 64 ------- 0 1.1 5.1 -1 2
+ 0.00613 5 3 ping 64 ------- 0 5.1 1.1 -1 4
- 0.00613 5 3 ping 64 ------- 0 5.1 1.1 -1 4
r 0.006135 5 3 ping 64 ------- 0 5.1 1.1 -1 4
+ 0.006135 3 2 ping 64 ------- 0 5.1 1.1 -1 4
- 0.006135 3 2 ping 64 ------- 0 5.1 1.1 -1 4
- 0.008325 2 3 tcp 40 ------- 1 0.0 4.0 0 0
r 0.009325 2 3 tcp 40 ------- 2 1.0 5.0 0 3
+ 0.009325 3 5 tcp 40 ------- 2 1.0 5.0 0 3
- 0.009325 3 5 tcp 40 ------- 2 1.0 5.0 0 3
r 0.009328 3 5 tcp 40 ------- 2 1.0 5.0 0 3
+ 0.009328 5 3 ack 40 ------- 2 5.0 1.0 0 5
- 0.009328 5 3 ack 40 ------- 2 5.0 1.0 0 5
r 0.009332 5 3 ack 40 ------- 2 5.0 1.0 0 5
+ 0.009332 3 2 ack 40 ------- 2 5.0 1.0 0 5
- 0.011255 3 2 ack 40 ------- 2 5.0 1.0 0 5
- 0.011525 2 3 ping 64 ------- 0 0.1 4.1 -1 1
r 0.012255 3 2 ping 64 ------- 0 5.1 1.1 -1 4
+ 0.012255 2 1 ping 64 ------- 0 5.1 1.1 -1 4
- 0.012255 2 1 ping 64 ------- 0 5.1 1.1 -1 4
r 0.01226 2 1 ping 64 ------- 0 5.1 1.1 -1 4
r 0.012525 2 3 tcp 40 ------- 1 0.0 4.0 0 0
+ 0.012525 3 4 tcp 40 ------- 1 0.0 4.0 0 0
- 0.012525 3 4 tcp 40 ------- 1 0.0 4.0 0 0
r 0.015455 3 2 ack 40 ------- 2 5.0 1.0 0 5
+ 0.015455 2 1 ack 40 ------- 2 5.0 1.0 0 5
- 0.015455 2 1 ack 40 ------- 2 5.0 1.0 0 5
r 0.015459 2 1 ack 40 ------- 2 5.0 1.0 0 5
+ 0.015459 1 2 tcp 1040 ------- 2 1.0 5.0 1 6
- 0.015459 1 2 tcp 1040 ------- 2 1.0 5.0 1 6
+ 0.015459 1 2 tcp 1040 ------- 2 1.0 5.0 2 7
r 0.015542 1 2 tcp 1040 ------- 2 1.0 5.0 1 6
+ 0.015542 2 3 tcp 1040 ------- 2 1.0 5.0 1 6
- 0.015542 1 2 tcp 1040 ------- 2 1.0 5.0 2 7
r 0.015625 1 2 tcp 1040 ------- 2 1.0 5.0 2 7
+ 0.015625 2 3 tcp 1040 ------- 2 1.0 5.0 2 7
- 0.016645 2 3 tcp 1040 ------- 2 1.0 5.0 1 6
r 0.017528 3 4 tcp 40 ------- 1 0.0 4.0 0 0
+ 0.017528 4 3 ack 40 ------- 1 4.0 0.0 0 8
- 0.017528 4 3 ack 40 ------- 1 4.0 0.0 0 8
r 0.017645 2 3 ping 64 ------- 0 0.1 4.1 -1 1
+ 0.017645 3 4 ping 64 ------- 0 0.1 4.1 -1 1
- 0.017645 3 4 ping 64 ------- 0 0.1 4.1 -1 1
r 0.022532 4 3 ack 40 ------- 1 4.0 0.0 0 8
+ 0.022532 3 2 ack 40 ------- 1 4.0 0.0 0 8
- 0.022532 3 2 ack 40 ------- 1 4.0 0.0 0 8
r 0.02265 3 4 ping 64 ------- 0 0.1 4.1 -1 1
+ 0.02265 4 3 ping 64 ------- 0 4.1 0.1 -1 9
- 0.02265 4 3 ping 64 ------- 0 4.1 0.1 -1 9
r 0.026732 3 2 ack 40 ------- 1 4.0 0.0 0 8
+ 0.026732 2 0 ack 40 ------- 1 4.0 0.0 0 8
- 0.026732 2 0 ack 40 ------- 1 4.0 0.0 0 8
r 0.027655 4 3 ping 64 ------- 0 4.1 0.1 -1 9
+ 0.027655 3 2 ping 64 ------- 0 4.1 0.1 -1 9
- 0.027655 3 2 ping 64 ------- 0 4.1 0.1 -1 9
r 0.031735 2 0 ack 40 ------- 1 4.0 0.0 0 8
+ 0.031735 0 2 tcp 1040 ------- 1 0.0 4.0 1 10
- 0.031735 0 2 tcp 1040 ------- 1 0.0 4.0 1 10
+ 0.031735 0 2 tcp 1040 ------- 1 0.0 4.0 2 11
- 0.031818 0 2 tcp 1040 ------- 1 0.0 4.0 2 11
r 0.033775 3 2 ping 64 ------- 0 4.1 0.1 -1 9
+ 0.033775 2 0 ping 64 ------- 0 4.1 0.1 -1 9
- 0.033775 2 0 ping 64 ------- 0 4.1 0.1 -1 9
r 0.036818 0 2 tcp 1040 ------- 1 0.0 4.0 1 10
+ 0.036818 2 3 tcp 1040 ------- 1 0.0 4.0 1 10
r 0.036901 0 2 tcp 1040 ------- 1 0.0 4.0 2 11
+ 0.036901 2 3 tcp 1040 ------- 1 0.0 4.0 2 11
r 0.03878 2 0 ping 64 ------- 0 4.1 0.1 -1 9
- 0.099845 2 3 tcp 1040 ------- 2 1.0 5.0 2 7
r 0.100845 2 3 tcp 1040 ------- 2 1.0 5.0 1 6
+ 0.100845 3 5 tcp 1040 ------- 2 1.0 5.0 1 6
- 0.100845 3 5 tcp 1040 ------- 2 1.0 5.0 1 6
r 0.100928 3 5 tcp 1040 ------- 2 1.0 5.0 1 6
+ 0.100928 5 3 ack 40 ------- 2 5.0 1.0 1 12
- 0.100928 5 3 ack 40 ------- 2 5.0 1.0 1 12
r 0.100932 5 3 ack 40 ------- 2 5.0 1.0 1 12
+ 0.100932 3 2 ack 40 ------- 2 5.0 1.0 1 12
- 0.100932 3 2 ack 40 ------- 2 5.0 1.0 1 12
r 0.105132 3 2 ack 40 ------- 2 5.0 1.0 1 12
+ 0.105132 2 1 ack 40 ------- 2 5.0 1.0 1 12
- 0.105132 2 1 ack 40 ------- 2 5.0 1.0 1 12
r 0.105135 2 1 ack 40 ------- 2 5.0 1.0 1 12
+ 0.105135 1 2 tcp 1040 ------- 2 1.0 5.0 3 13
- 0.105135 1 2 tcp 1040 ------- 2 1.0 5.0 3 13
+ 0.105135 1 2 tcp 1040 ------- 2 1.0 5.0 4 14
r 0.105218 1 2 tcp 1040 ------- 2 1.0 5.0 3 13
+ 0.105218 2 3 tcp 1040 ------- 2 1.0 5.0 3 13
- 0.105218 1 2 tcp 1040 ------- 2 1.0 5.0 4 14
r 0.105301 1 2 tcp 1040 ------- 2 1.0 5.0 4 14
+ 0.105301 2 3 tcp 1040 ------- 2 1.0 5.0 4 14
- 0.183045 2 3 tcp 1040 ------- 1 0.0 4.0 1 10
r 0.184045 2 3 tcp 1040 ------- 2 1.0 5.0 2 7
+ 0.184045 3 5 tcp 1040 ------- 2 1.0 5.0 2 7
- 0.184045 3 5 tcp 1040 ------- 2 1.0 5.0 2 7
r 0.184128 3 5 tcp 1040 ------- 2 1.0 5.0 2 7
+ 0.184128 5 3 ack 40 ------- 2 5.0 1.0 2 15
- 0.184128 5 3 ack 40 ------- 2 5.0 1.0 2 15
r 0.184132 5 3 ack 40 ------- 2 5.0 1.0 2 15
+ 0.184132 3 2 ack 40 ------- 2 5.0 1.0 2 15
- 0.184132 3 2 ack 40 ------- 2 5.0 1.0 2 15
r 0.188332 3 2 ack 40 ------- 2 5.0 1.0 2 15
+ 0.188332 2 1 ack 40 ------- 2 5.0 1.0 2 15
- 0.188332 2 1 ack 40 ------- 2 5.0 1.0 2 15
r 0.188335 2 1 ack 40 ------- 2 5.0 1.0 2 15
+ 0.188335 1 2 tcp 1040 ------- 2 1.0 5.0 5 16
- 0.188335 1 2 tcp 1040 ------- 2 1.0 5.0 5 16
+ 0.188335 1 2 tcp 1040 ------- 2 1.0 5.0 6 17
r 0.188418 1 2 tcp 1040 ------- 2 1.0 5.0 5 16
+ 0.188418 2 3 tcp 1040 ------- 2 1.0 5.0 5 16
- 0.188418 1 2 tcp 1040 ------- 2 1.0 5.0 6 17
r 0.188501 1 2 tcp 1040 ------- 2 1.0 5.0 6 17
+ 0.188501 2 3 tcp 1040 ------- 2 1.0 5.0 6 17
+ 0.231735 0 2 tcp 1040 ---A--- 1 0.0 4.0 1 18
- 0.231735 0 2 tcp 1040 ---A--- 1 0.0 4.0 1 18
r 0.236818 0 2 tcp 1040 ---A--- 1 0.0 4.0 1 18
+ 0.236818 2 3 tcp 1040 ---A--- 1 0.0 4.0 1 18
- 0.266245 2 3 tcp 1040 ------- 1 0.0 4.0 2 11
r 0.267245 2 3 tcp 1040 ------- 1 0.0 4.0 1 10
+ 0.267245 3 4 tcp 1040 ------- 1 0.0 4.0 1 10
- 0.267245 3 4 tcp 1040 ------- 1 0.0 4.0 1 10
r 0.272328 3 4 tcp 1040 ------- 1 0.0 4.0 1 10
+ 0.272328 4 3 ack 40 ------- 1 4.0 0.0 1 19
- 0.272328 4 3 ack 40 ------- 1 4.0 0.0 1 19
r 0.277332 4 3 ack 40 ------- 1 4.0 0.0 1 19
+ 0.277332 3 2 ack 40 ------- 1 4.0 0.0 1 19
- 0.277332 3 2 ack 40 ------- 1 4.0 0.0 1 19
r 0.281532 3 2 ack 40 ------- 1 4.0 0.0 1 19
+ 0.281532 2 0 ack 40 ------- 1 4.0 0.0 1 19
- 0.281532 2 0 ack 40 ------- 1 4.0 0.0 1 19
r 0.286535 2 0 ack 40 ------- 1 4.0 0.0 1 19
+ 0.286535 0 2 tcp 1040 ------- 1 0.0 4.0 2 20
- 0.286535 0 2 tcp 1040 ------- 1 0.0 4.0 2 20
+ 0.286535 0 2 tcp 1040 ------- 1 0.0 4.0 3 21
- 0.286618 0 2 tcp 1040 ------- 1 0.0 4.0 3 21
r 0.291618 0 2 tcp 1040 ------- 1 0.0 4.0 2 20
+ 0.291618 2 3 tcp 1040 ------- 1 0.0 4.0 2 20
r 0.291701 0 2 tcp 1040 ------- 1 0.0 4.0 3 21
+ 0.291701 2 3 tcp 1040 ------- 1 0.0 4.0 3 21
- 0.349445 2 3 tcp 1040 ------- 2 1.0 5.0 3 13
r 0.350445 2 3 tcp 1040 ------- 1 0.0 4.0 2 11
+ 0.350445 3 4 tcp 1040 ------- 1 0.0 4.0 2 11
- 0.350445 3 4 tcp 1040 ------- 1 0.0 4.0 2 11
r 0.355528 3 4 tcp 1040 ------- 1 0.0 4.0 2 11
+ 0.355528 4 3 ack 40 ------- 1 4.0 0.0 2 22
- 0.355528 4 3 ack 40 ------- 1 4.0 0.0 2 22
r 0.360532 4 3 ack 40 ------- 1 4.0 0.0 2 22
+ 0.360532 3 2 ack 40 ------- 1 4.0 0.0 2 22
- 0.360532 3 2 ack 40 ------- 1 4.0 0.0 2 22
r 0.364732 3 2 ack 40 ------- 1 4.0 0.0 2 22
+ 0.364732 2 0 ack 40 ------- 1 4.0 0.0 2 22
- 0.364732 2 0 ack 40 ------- 1 4.0 0.0 2 22
r 0.369735 2 0 ack 40 ------- 1 4.0 0.0 2 22
+ 0.369735 0 2 tcp 1040 ------- 1 0.0 4.0 4 23
- 0.369735 0 2 tcp 1040 ------- 1 0.0 4.0 4 23
r 0.374818 0 2 tcp 1040 ------- 1 0.0 4.0 4 23
+ 0.374818 2 3 tcp 1040 ------- 1 0.0 4.0 4 23
+ 0.388335 1 2 tcp 1040 ---A--- 2 1.0 5.0 3 24
- 0.388335 1 2 tcp 1040 ---A--- 2 1.0 5.0 3 24
r 0.388418 1 2 tcp 1040 ---A--- 2 1.0 5.0 3 24
+ 0.388418 2 3 tcp 1040 ---A--- 2 1.0 5.0 3 24
- 0.432645 2 3 tcp 1040 ------- 2 1.0 5.0 4 14
r 0.433645 2 3 tcp 1040 ------- 2 1.0 5.0 3 13
+ 0.433645 3 5 tcp 1040 ------- 2 1.0 5.0 3 13
- 0.433645 3 5 tcp 1040 ------- 2 1.0 5.0 3 13
r 0.433728 3 5 tcp 1040 ------- 2 1.0 5.0 3 13
+ 0.433728 5 3 ack 40 ------- 2 5.0 1.0 3 25
- 0.433728 5 3 ack 40 ------- 2 5.0 1.0 3 25
r 0.433732 5 3 ack 40 ------- 2 5.0 1.0 3 25
+ 0.433732 3 2 ack 40 ------- 2 5.0 1.0 3 25
- 0.433732 3 2 ack 40 ------- 2 5.0 1.0 3 25
r 0.437932 3 2 ack 40 ------- 2 5.0 1.0 3 25
+ 0.437932 2 1 ack 40 ------- 2 5.0 1.0 3 25
- 0.437932 2 1 ack 40 ------- 2 5.0 1.0 3 25
r 0.437935 2 1 ack 40 ------- 2 5.0 1.0 3 25
+ 0.437935 1 2 tcp 1040 ------- 2 1.0 5.0 4 26
- 0.437935 1 2 tcp 1040 ------- 2 1.0 5.0 4 26
+ 0.437935 1 2 tcp 1040 ------- 2 1.0 5.0 5 27
r 0.438018 1 2 tcp 1040 ------- 2 1.0 5.0 4 26
+ 0.438018 2 3 tcp 1040 ------- 2 1.0 5.0 4 26
- 0.438018 1 2 tcp 1040 ------- 2 1.0 5.0 5 27
r 0.438101 1 2 tcp 1040 ------- 2 1.0 5.0 5 27
+ 0.438101 2 3 tcp 1040 ------- 2 1.0 5.0 5 27
- 0.515845 2 3 tcp 1040 ------- 2 1.0 5.0 5 16
r 0.516845 2 3 tcp 1040 ------- 2 1.0 5.0 4 14
+ 0.516845 3 5 tcp 1040 ------- 2 1.0 5.0 4 14
- 0.516845 3 5 tcp 1040 ------- 2 1.0 5.0 4 14
r 0.516928 3 5 tcp 1040 ------- 2 1.0 5.0 4 14
+ 0.516928 5 3 ack 40 ------- 2 5.0 1.0 4 28
- 0.516928 5 3 ack 40 ------- 2 5.0 1.0 4 28
r 0.516932 5 3 ack 40 ------- 2 5.0 1.0 4 28
+ 0.516932 3 2 ack 40 ------- 2 5.0 1.0 4 28
- 0.516932 3 2 ack 40 ------- 2 5.0 1.0 4 28
r 0.521132 3 2 ack 40 ------- 2 5.0 1.0 4 28
+ 0.521132 2 1 ack 40 ------- 2 5.0 1.0 4 28
- 0.521132 2 1 ack 40 ------- 2 5.0 1.0 4 28
r 0.521135 2 1 ack 40 ------- 2 5.0 1.0 4 28
+ 0.521135 1 2 tcp 1040 ------- 2 1.0 5.0 6 29
- 0.521135 1 2 tcp 1040 ------- 2 1.0 5.0 6 29
r 0.521218 1 2 tcp 1040 ------- 2 1.0 5.0 6 29
+ 0.521218 2 3 tcp 1040 ------- 2 1.0 5.0 6 29
- 0.599045 2 3 tcp 1040 ------- 2 1.0 5.0 6 17
r 0.600045 2 3 tcp 1040 ------- 2 1.0 5.0 5 16
+ 0.600045 3 5 tcp 1040 ------- 2 1.0 5.0 5 16
- 0.600045 3 5 tcp 1040 ------- 2 1.0 5.0 5 16
r 0.600128 3 5 tcp 1040 ------- 2 1.0 5.0 5 16
+ 0.600128 5 3 ack 40 ------- 2 5.0 1.0 5 30
- 0.600128 5 3 ack 40 ------- 2 5.0 1.0 5 30
r 0.600132 5 3 ack 40 ------- 2 5.0 1.0 5 30
+ 0.600132 3 2 ack 40 ------- 2 5.0 1.0 5 30
- 0.600132 3 2 ack 40 ------- 2 5.0 1.0 5 30
r 0.604332 3 2 ack 40 ------- 2 5.0 1.0 5 30
+ 0.604332 2 1 ack 40 ------- 2 5.0 1.0 5 30
- 0.604332 2 1 ack 40 ------- 2 5.0 1.0 5 30
r 0.604335 2 1 ack 40 ------- 2 5.0 1.0 5 30
+ 0.604335 1 2 tcp 1040 ------- 2 1.0 5.0 7 31
- 0.604335 1 2 tcp 1040 ------- 2 1.0 5.0 7 31
r 0.604418 1 2 tcp 1040 ------- 2 1.0 5.0 7 31
+ 0.604418 2 3 tcp 1040 ------- 2 1.0 5.0 7 31
- 0.682245 2 3 tcp 1040 ---A--- 1 0.0 4.0 1 18
r 0.683245 2 3 tcp 1040 ------- 2 1.0 5.0 6 17
+ 0.683245 3 5 tcp 1040 ------- 2 1.0 5.0 6 17
- 0.683245 3 5 tcp 1040 ------- 2 1.0 5.0 6 17
r 0.683328 3 5 tcp 1040 ------- 2 1.0 5.0 6 17
+ 0.683328 5 3 ack 40 ------- 2 5.0 1.0 6 32
- 0.683328 5 3 ack 40 ------- 2 5.0 1.0 6 32
r 0.683332 5 3 ack 40 ------- 2 5.0 1.0 6 32
+ 0.683332 3 2 ack 40 ------- 2 5.0 1.0 6 32
- 0.683332 3 2 ack 40 ------- 2 5.0 1.0 6 32
r 0.687532 3 2 ack 40 ------- 2 5.0 1.0 6 32
+ 0.687532 2 1 ack 40 ------- 2 5.0 1.0 6 32
- 0.687532 2 1 ack 40 ------- 2 5.0 1.0 6 32
r 0.687535 2 1 ack 40 ------- 2 5.0 1.0 6 32
+ 0.687535 1 2 tcp 1040 ------- 2 1.0 5.0 8 33
- 0.687535 1 2 tcp 1040 ------- 2 1.0 5.0 8 33
+ 0.687535 1 2 tcp 1040 ------- 2 1.0 5.0 9 34
r 0.687618 1 2 tcp 1040 ------- 2 1.0 5.0 8 33
+ 0.687618 2 3 tcp 1040 ------- 2 1.0 5.0 8 33
- 0.687618 1 2 tcp 1040 ------- 2 1.0 5.0 9 34
r 0.687701 1 2 tcp 1040 ------- 2 1.0 5.0 9 34
+ 0.687701 2 3 tcp 1040 ------- 2 1.0 5.0 9 34
d 0.687701 2 3 tcp 1040 ------- 2 1.0 5.0 9 34
- 0.765445 2 3 tcp 1040 ------- 1 0.0 4.0 2 20
r 0.766445 2 3 tcp 1040 ---A--- 1 0.0 4.0 1 18
+ 0.766445 3 4 tcp 1040 ---A--- 1 0.0 4.0 1 18
- 0.766445 3 4 tcp 1040 ---A--- 1 0.0 4.0 1 18
+ 0.769735 0 2 tcp 1040 ---A--- 1 0.0 4.0 3 35
- 0.769735 0 2 tcp 1040 ---A--- 1 0.0 4.0 3 35
r 0.771528 3 4 tcp 1040 ---A--- 1 0.0 4.0 1 18
+ 0.771528 4 3 ack 40 ------- 1 4.0 0.0 2 36
- 0.771528 4 3 ack 40 ------- 1 4.0 0.0 2 36
r 0.774818 0 2 tcp 1040 ---A--- 1 0.0 4.0 3 35
+ 0.774818 2 3 tcp 1040 ---A--- 1 0.0 4.0 3 35
r 0.776532 4 3 ack 40 ------- 1 4.0 0.0 2 36
+ 0.776532 3 2 ack 40 ------- 1 4.0 0.0 2 36
- 0.776532 3 2 ack 40 ------- 1 4.0 0.0 2 36
r 0.780732 3 2 ack 40 ------- 1 4.0 0.0 2 36
+ 0.780732 2 0 ack 40 ------- 1 4.0 0.0 2 36
- 0.780732 2 0 ack 40 ------- 1 4.0 0.0 2 36
r 0.785735 2 0 ack 40 ------- 1 4.0 0.0 2 36
+ 0.785735 0 2 tcp 1040 ------- 1 0.0 4.0 4 37
- 0.785735 0 2 tcp 1040 ------- 1 0.0 4.0 4 37
r 0.790818 0 2 tcp 1040 ------- 1 0.0 4.0 4 37
+ 0.790818 2 3 tcp 1040 ------- 1 0.0 4.0 4 37
d 0.790818 2 3 tcp 1040 ------- 1 0.0 4.0 4 37
- 0.848645 2 3 tcp 1040 ------- 1 0.0 4.0 3 21
r 0.849645 2 3 tcp 1040 ------- 1 0.0 4.0 2 20
+ 0.849645 3 4 tcp 1040 ------- 1 0.0 4.0 2 20
- 0.849645 3 4 tcp 1040 ------- 1 0.0 4.0 2 20
r 0.854728 3 4 tcp 1040 ------- 1 0.0 4.0 2 20
+ 0.854728 4 3 ack 40 ------- 1 4.0 0.0 2 38
- 0.854728 4 3 ack 40 ------- 1 4.0 0.0 2 38
r 0.859732 4 3 ack 40 ------- 1 4.0 0.0 2 38
+ 0.859732 3 2 ack 40 ------- 1 4.0 0.0 2 38
- 0.859732 3 2 ack 40 ------- 1 4.0 0.0 2 38
r 0.863932 3 2 ack 40 ------- 1 4.0 0.0 2 38
+ 0.863932 2 0 ack 40 ------- 1 4.0 0.0 2 38
- 0.863932 2 0 ack 40 ------- 1 4.0 0.0 2 38
r 0.868935 2 0 ack 40 ------- 1 4.0 0.0 2 38
+ 0.868935 0 2 tcp 1040 ------- 1 0.0 4.0 5 39
- 0.868935 0 2 tcp 1040 ------- 1 0.0 4.0 5 39
r 0.874018 0 2 tcp 1040 ------- 1 0.0 4.0 5 39
+ 0.874018 2 3 tcp 1040 ------- 1 0.0 4.0 5 39
- 0.931845 2 3 tcp 1040 ------- 1 0.0 4.0 4 23
r 0.932845 2 3 tcp 1040 ------- 1 0.0 4.0 3 21
+ 0.932845 3 4 tcp 1040 ------- 1 0.0 4.0 3 21
- 0.932845 3 4 tcp 1040 ------- 1 0.0 4.0 3 21
r 0.937928 3 4 tcp 1040 ------- 1 0.0 4.0 3 21
+ 0.937928 4 3 ack 40 ------- 1 4.0 0.0 3 40
- 0.937928 4 3 ack 40 ------- 1 4.0 0.0 3 40
r 0.942932 4 3 ack 40 ------- 1 4.0 0.0 3 40
+ 0.942932 3 2 ack 40 ------- 1 4.0 0.0 3 40
- 0.942932 3 2 ack 40 ------- 1 4.0 0.0 3 40
r 0.947132 3 2 ack 40 ------- 1 4.0 0.0 3 40
+ 0.947132 2 0 ack 40 ------- 1 4.0 0.0 3 40
- 0.947132 2 0 ack 40 ------- 1 4.0 0.0 3 40
r 0.952135 2 0 ack 40 ------- 1 4.0 0.0 3 40
+ 1 0 2 ping 64 ------- 0 0.1 4.1 -1 41
- 1 0 2 ping 64 ------- 0 0.1 4.1 -1 41
+ 1 1 2 ping 64 ------- 0 1.1 5.1 -1 42
- 1 1 2 ping 64 ------- 0 1.1 5.1 -1 42
r 1.000005 1 2 ping 64 ------- 0 1.1 5.1 -1 42
+ 1.000005 2 3 ping 64 ------- 0 1.1 5.1 -1 42
r 1.005005 0 2 ping 64 ------- 0 0.1 4.1 -1 41
+ 1.005005 2 3 ping 64 ------- 0 0.1 4.1 -1 41
d 1.005005 2 3 ping 64 ------- 0 0.1 4.1 -1 41
- 1.015045 2 3 tcp 1040 ---A--- 2 1.0 5.0 3 24
r 1.016045 2 3 tcp 1040 ------- 1 0.0 4.0 4 23
+ 1.016045 3 4 tcp 1040 ------- 1 0.0 4.0 4 23
- 1.016045 3 4 tcp 1040 ------- 1 0.0 4.0 4 23
r 1.021128 3 4 tcp 1040 ------- 1 0.0 4.0 4 23
+ 1.021128 4 3 ack 40 ------- 1 4.0 0.0 4 43
- 1.021128 4 3 ack 40 ------- 1 4.0 0.0 4 43
r 1.026132 4 3 ack 40 ------- 1 4.0 0.0 4 43
+ 1.026132 3 2 ack 40 ------- 1 4.0 0.0 4 43
- 1.026132 3 2 ack 40 ------- 1 4.0 0.0 4 43
r 1.030332 3 2 ack 40 ------- 1 4.0 0.0 4 43
+ 1.030332 2 0 ack 40 ------- 1 4.0 0.0 4 43
- 1.030332 2 0 ack 40 ------- 1 4.0 0.0 4 43
r 1.035335 2 0 ack 40 ------- 1 4.0 0.0 4 43
+ 1.035335 0 2 tcp 1040 ------- 1 0.0 4.0 6 44
- 1.035335 0 2 tcp 1040 ------- 1 0.0 4.0 6 44
r 1.040418 0 2 tcp 1040 ------- 1 0.0 4.0 6 44
+ 1.040418 2 3 tcp 1040 ------- 1 0.0 4.0 6 44
+ 1.087535 1 2 tcp 1040 ---A--- 2 1.0 5.0 7 45
- 1.087535 1 2 tcp 1040 ---A--- 2 1.0 5.0 7 45
r 1.087618 1 2 tcp 1040 ---A--- 2 1.0 5.0 7 45
+ 1.087618 2 3 tcp 1040 ---A--- 2 1.0 5.0 7 45
d 1.087618 2 3 tcp 1040 ---A--- 2 1.0 5.0 7 45
- 1.098245 2 3 tcp 1040 ------- 2 1.0 5.0 4 26
r 1.099245 2 3 tcp 1040 ---A--- 2 1.0 5.0 3 24
+ 1.099245 3 5 tcp 1040 ---A--- 2 1.0 5.0 3 24
- 1.099245 3 5 tcp 1040 ---A--- 2 1.0 5.0 3 24
r 1.099328 3 5 tcp 1040 ---A--- 2 1.0 5.0 3 24
+ 1.099328 5 3 ack 40 ------- 2 5.0 1.0 6 46
- 1.099328 5 3 ack 40 ------- 2 5.0 1.0 6 46
r 1.099332 5 3 ack 40 ------- 2 5.0 1.0 6 46
+ 1.099332 3 2 ack 40 ------- 2 5.0 1.0 6 46
- 1.099332 3 2 ack 40 ------- 2 5.0 1.0 6 46
r 1.103532 3 2 ack 40 ------- 2 5.0 1.0 6 46
+ 1.103532 2 1 ack 40 ------- 2 5.0 1.0 6 46
- 1.103532 2 1 ack 40 ------- 2 5.0 1.0 6 46
r 1.103535 2 1 ack 40 ------- 2 5.0 1.0 6 46
+ 1.103535 1 2 tcp 1040 ------- 2 1.0 5.0 8 47
- 1.103535 1 2 tcp 1040 ------- 2 1.0 5.0 8 47
r 1.103618 1 2 tcp 1040 ------- 2 1.0 5.0 8 47
+ 1.103618 2 3 tcp 1040 ------- 2 1.0 5.0 8 47
- 1.181445 2 3 tcp 1040 ------- 2 1.0 5.0 5 27
r 1.182445 2 3 tcp 1040 ------- 2 1.0 5.0 4 26
+ 1.182445 3 5 tcp 1040 ------- 2 1.0 5.0 4 26
- 1.182445 3 5 tcp 1040 ------- 2 1.0 5.0 4 26
r 1.182528 3 5 tcp 1040 ------- 2 1.0 5.0 4 26
+ 1.182528 5 3 ack 40 ------- 2 5.0 1.0 6 48
- 1.182528 5 3 ack 40 ------- 2 5.0 1.0 6 48
r 1.182532 5 3 ack 40 ------- 2 5.0 1.0 6 48
+ 1.182532 3 2 ack 40 ------- 2 5.0 1.0 6 48
- 1.182532 3 2 ack 40 ------- 2 5.0 1.0 6 48
r 1.186732 3 2 ack 40 ------- 2 5.0 1.0 6 48
+ 1.186732 2 1 ack 40 ------- 2 5.0 1.0 6 48
- 1.186732 2 1 ack 40 ------- 2 5.0 1.0 6 48
r 1.186735 2 1 ack 40 ------- 2 5.0 1.0 6 48
+ 1.186735 1 2 tcp 1040 ------- 2 1.0 5.0 9 49
- 1.186735 1 2 tcp 1040 ------- 2 1.0 5.0 9 49
r 1.186818 1 2 tcp 1040 ------- 2 1.0 5.0 9 49
+ 1.186818 2 3 tcp 1040 ------- 2 1.0 5.0 9 49
- 1.264645 2 3 tcp 1040 ------- 2 1.0 5.0 6 29
r 1.265645 2 3 tcp 1040 ------- 2 1.0 5.0 5 27
+ 1.265645 3 5 tcp 1040 ------- 2 1.0 5.0 5 27
- 1.265645 3 5 tcp 1040 ------- 2 1.0 5.0 5 27
r 1.265728 3 5 tcp 1040 ------- 2 1.0 5.0 5 27
+ 1.265728 5 3 ack 40 ------- 2 5.0 1.0 6 50
- 1.265728 5 3 ack 40 ------- 2 5.0 1.0 6 50
r 1.265732 5 3 ack 40 ------- 2 5.0 1.0 6 50
+ 1.265732 3 2 ack 40 ------- 2 5.0 1.0 6 50
- 1.265732 3 2 ack 40 ------- 2 5.0 1.0 6 50
r 1.269932 3 2 ack 40 ------- 2 5.0 1.0 6 50
+ 1.269932 2 1 ack 40 ------- 2 5.0 1.0 6 50
- 1.269932 2 1 ack 40 ------- 2 5.0 1.0 6 50
r 1.269935 2 1 ack 40 ------- 2 5.0 1.0 6 50
- 1.347845 2 3 tcp 1040 ------- 2 1.0 5.0 7 31
r 1.348845 2 3 tcp 1040 ------- 2 1.0 5.0 6 29
+ 1.348845 3 5 tcp 1040 ------- 2 1.0 5.0 6 29
- 1.348845 3 5 tcp 1040 ------- 2 1.0 5.0 6 29
r 1.348928 3 5 tcp 1040 ------- 2 1.0 5.0 6 29
+ 1.348928 5 3 ack 40 ------- 2 5.0 1.0 6 51
- 1.348928 5 3 ack 40 ------- 2 5.0 1.0 6 51
r 1.348932 5 3 ack 40 ------- 2 5.0 1.0 6 51
+ 1.348932 3 2 ack 40 ------- 2 5.0 1.0 6 51
- 1.348932 3 2 ack 40 ------- 2 5.0 1.0 6 51
r 1.353132 3 2 ack 40 ------- 2 5.0 1.0 6 51
+ 1.353132 2 1 ack 40 ------- 2 5.0 1.0 6 51
- 1.353132 2 1 ack 40 ------- 2 5.0 1.0 6 51
r 1.353135 2 1 ack 40 ------- 2 5.0 1.0 6 51
- 1.431045 2 3 tcp 1040 ------- 2 1.0 5.0 8 33
r 1.432045 2 3 tcp 1040 ------- 2 1.0 5.0 7 31
+ 1.432045 3 5 tcp 1040 ------- 2 1.0 5.0 7 31
- 1.432045 3 5 tcp 1040 ------- 2 1.0 5.0 7 31
r 1.432128 3 5 tcp 1040 ------- 2 1.0 5.0 7 31
+ 1.432128 5 3 ack 40 ------- 2 5.0 1.0 7 52
- 1.432128 5 3 ack 40 ------- 2 5.0 1.0 7 52
r 1.432132 5 3 ack 40 ------- 2 5.0 1.0 7 52
+ 1.432132 3 2 ack 40 ------- 2 5.0 1.0 7 52
- 1.432132 3 2 ack 40 ------- 2 5.0 1.0 7 52
r 1.436332 3 2 ack 40 ------- 2 5.0 1.0 7 52
+ 1.436332 2 1 ack 40 ------- 2 5.0 1.0 7 52
- 1.436332 2 1 ack 40 ------- 2 5.0 1.0 7 52
r 1.436335 2 1 ack 40 ------- 2 5.0 1.0 7 52
- 1.514245 2 3 tcp 1040 ---A--- 1 0.0 4.0 3 35
r 1.515245 2 3 tcp 1040 ------- 2 1.0 5.0 8 33
+ 1.515245 3 5 tcp 1040 ------- 2 1.0 5.0 8 33
- 1.515245 3 5 tcp 1040 ------- 2 1.0 5.0 8 33
r 1.515328 3 5 tcp 1040 ------- 2 1.0 5.0 8 33
+ 1.515328 5 3 ack 40 ------- 2 5.0 1.0 8 53
- 1.515328 5 3 ack 40 ------- 2 5.0 1.0 8 53
r 1.515332 5 3 ack 40 ------- 2 5.0 1.0 8 53
+ 1.515332 3 2 ack 40 ------- 2 5.0 1.0 8 53
- 1.515332 3 2 ack 40 ------- 2 5.0 1.0 8 53
r 1.519532 3 2 ack 40 ------- 2 5.0 1.0 8 53
+ 1.519532 2 1 ack 40 ------- 2 5.0 1.0 8 53
- 1.519532 2 1 ack 40 ------- 2 5.0 1.0 8 53
r 1.519535 2 1 ack 40 ------- 2 5.0 1.0 8 53
+ 1.519535 1 2 tcp 1040 ------- 2 1.0 5.0 10 54
- 1.519535 1 2 tcp 1040 ------- 2 1.0 5.0 10 54
r 1.519618 1 2 tcp 1040 ------- 2 1.0 5.0 10 54
+ 1.519618 2 3 tcp 1040 ------- 2 1.0 5.0 10 54
- 1.597445 2 3 tcp 1040 ------- 1 0.0 4.0 5 39
r 1.598445 2 3 tcp 1040 ---A--- 1 0.0 4.0 3 35
+ 1.598445 3 4 tcp 1040 ---A--- 1 0.0 4.0 3 35
- 1.598445 3 4 tcp 1040 ---A--- 1 0.0 4.0 3 35
r 1.603528 3 4 tcp 1040 ---A--- 1 0.0 4.0 3 35
+ 1.603528 4 3 ack 40 ------- 1 4.0 0.0 4 55
- 1.603528 4 3 ack 40 ------- 1 4.0 0.0 4 55
r 1.608532 4 3 ack 40 ------- 1 4.0 0.0 4 55
+ 1.608532 3 2 ack 40 ------- 1 4.0 0.0 4 55
- 1.608532 3 2 ack 40 ------- 1 4.0 0.0 4 55
r 1.612732 3 2 ack 40 ------- 1 4.0 0.0 4 55
+ 1.612732 2 0 ack 40 ------- 1 4.0 0.0 4 55
- 1.612732 2 0 ack 40 ------- 1 4.0 0.0 4 55
r 1.617735 2 0 ack 40 ------- 1 4.0 0.0 4 55
+ 1.617735 0 2 tcp 1040 ------- 1 0.0 4.0 7 56
- 1.617735 0 2 tcp 1040 ------- 1 0.0 4.0 7 56
r 1.622818 0 2 tcp 1040 ------- 1 0.0 4.0 7 56
+ 1.622818 2 3 tcp 1040 ------- 1 0.0 4.0 7 56
- 1.680645 2 3 ping 64 ------- 0 1.1 5.1 -1 42
r 1.681645 2 3 tcp 1040 ------- 1 0.0 4.0 5 39
+ 1.681645 3 4 tcp 1040 ------- 1 0.0 4.0 5 39
- 1.681645 3 4 tcp 1040 ------- 1 0.0 4.0 5 39
- 1.685765 2 3 tcp 1040 ------- 1 0.0 4.0 6 44
r 1.686728 3 4 tcp 1040 ------- 1 0.0 4.0 5 39
+ 1.686728 4 3 ack 40 ------- 1 4.0 0.0 5 57
- 1.686728 4 3 ack 40 ------- 1 4.0 0.0 5 57
r 1.686765 2 3 ping 64 ------- 0 1.1 5.1 -1 42
+ 1.686765 3 5 ping 64 ------- 0 1.1 5.1 -1 42
- 1.686765 3 5 ping 64 ------- 0 1.1 5.1 -1 42
r 1.68677 3 5 ping 64 ------- 0 1.1 5.1 -1 42
+ 1.68677 5 3 ping 64 ------- 0 5.1 1.1 -1 58
- 1.68677 5 3 ping 64 ------- 0 5.1 1.1 -1 58
r 1.686775 5 3 ping 64 ------- 0 5.1 1.1 -1 58
+ 1.686775 3 2 ping 64 ------- 0 5.1 1.1 -1 58
- 1.686775 3 2 ping 64 ------- 0 5.1 1.1 -1 58
r 1.691732 4 3 ack 40 ------- 1 4.0 0.0 5 57
+ 1.691732 3 2 ack 40 ------- 1 4.0 0.0 5 57
- 1.691895 3 2 ack 40 ------- 1 4.0 0.0 5 57
r 1.692895 3 2 ping 64 ------- 0 5.1 1.1 -1 58
+ 1.692895 2 1 ping 64 ------- 0 5.1 1.1 -1 58
- 1.692895 2 1 ping 64 ------- 0 5.1 1.1 -1 58
r 1.6929 2 1 ping 64 ------- 0 5.1 1.1 -1 58
r 1.696095 3 2 ack 40 ------- 1 4.0 0.0 5 57
+ 1.696095 2 0 ack 40 ------- 1 4.0 0.0 5 57
- 1.696095 2 0 ack 40 ------- 1 4.0 0.0 5 57
r 1.701099 2 0 ack 40 ------- 1 4.0 0.0 5 57
- 1.768965 2 3 tcp 1040 ------- 2 1.0 5.0 8 47
r 1.769965 2 3 tcp 1040 ------- 1 0.0 4.0 6 44
+ 1.769965 3 4 tcp 1040 ------- 1 0.0 4.0 6 44
- 1.769965 3 4 tcp 1040 ------- 1 0.0 4.0 6 44
r 1.775048 3 4 tcp 1040 ------- 1 0.0 4.0 6 44
+ 1.775048 4 3 ack 40 ------- 1 4.0 0.0 6 59
- 1.775048 4 3 ack 40 ------- 1 4.0 0.0 6 59
r 1.780052 4 3 ack 40 ------- 1 4.0 0.0 6 59
+ 1.780052 3 2 ack 40 ------- 1 4.0 0.0 6 59
- 1.780052 3 2 ack 40 ------- 1 4.0 0.0 6 59
r 1.784252 3 2 ack 40 ------- 1 4.0 0.0 6 59
+ 1.784252 2 0 ack 40 ------- 1 4.0 0.0 6 59
- 1.784252 2 0 ack 40 ------- 1 4.0 0.0 6 59
r 1.789255 2 0 ack 40 ------- 1 4.0 0.0 6 59
+ 1.789255 0 2 tcp 1040 ------- 1 0.0 4.0 8 60
- 1.789255 0 2 tcp 1040 ------- 1 0.0 4.0 8 60
+ 1.789255 0 2 tcp 1040 ------- 1 0.0 4.0 9 61
- 1.789338 0 2 tcp 1040 ------- 1 0.0 4.0 9 61
r 1.794338 0 2 tcp 1040 ------- 1 0.0 4.0 8 60
+ 1.794338 2 3 tcp 1040 ------- 1 0.0 4.0 8 60
r 1.794421 0 2 tcp 1040 ------- 1 0.0 4.0 9 61
+ 1.794421 2 3 tcp 1040 ------- 1 0.0 4.0 9 61
- 1.852165 2 3 tcp 1040 ------- 2 1.0 5.0 9 49
r 1.853165 2 3 tcp 1040 ------- 2 1.0 5.0 8 47
+ 1.853165 3 5 tcp 1040 ------- 2 1.0 5.0 8 47
- 1.853165 3 5 tcp 1040 ------- 2 1.0 5.0 8 47
r 1.853248 3 5 tcp 1040 ------- 2 1.0 5.0 8 47
+ 1.853248 5 3 ack 40 ------- 2 5.0 1.0 8 62
- 1.853248 5 3 ack 40 ------- 2 5.0 1.0 8 62
r 1.853252 5 3 ack 40 ------- 2 5.0 1.0 8 62
+ 1.853252 3 2 ack 40 ------- 2 5.0 1.0 8 62
- 1.853252 3 2 ack 40 ------- 2 5.0 1.0 8 62
r 1.857452 3 2 ack 40 ------- 2 5.0 1.0 8 62
+ 1.857452 2 1 ack 40 ------- 2 5.0 1.0 8 62
- 1.857452 2 1 ack 40 ------- 2 5.0 1.0 8 62
r 1.857455 2 1 ack 40 ------- 2 5.0 1.0 8 62
+ 1.857455 1 2 tcp 1040 ------- 2 1.0 5.0 11 63
- 1.857455 1 2 tcp 1040 ------- 2 1.0 5.0 11 63
r 1.857538 1 2 tcp 1040 ------- 2 1.0 5.0 11 63
+ 1.857538 2 3 tcp 1040 ------- 2 1.0 5.0 11 63
- 1.935365 2 3 tcp 1040 ------- 2 1.0 5.0 10 54
r 1.936365 2 3 tcp 1040 ------- 2 1.0 5.0 9 49
+ 1.936365 3 5 tcp 1040 ------- 2 1.0 5.0 9 49
- 1.936365 3 5 tcp 1040 ------- 2 1.0 5.0 9 49
r 1.936448 3 5 tcp 1040 ------- 2 1.0 5.0 9 49
+ 1.936448 5 3 ack 40 ------- 2 5.0 1.0 9 64
- 1.936448 5 3 ack 40 ------- 2 5.0 1.0 9 64
r 1.936452 5 3 ack 40 ------- 2 5.0 1.0 9 64
+ 1.936452 3 2 ack 40 ------- 2 5.0 1.0 9 64
- 1.936452 3 2 ack 40 ------- 2 5.0 1.0 9 64
r 1.940652 3 2 ack 40 ------- 2 5.0 1.0 9 64
+ 1.940652 2 1 ack 40 ------- 2 5.0 1.0 9 64
- 1.940652 2 1 ack 40 ------- 2 5.0 1.0 9 64
r 1.940655 2 1 ack 40 ------- 2 5.0 1.0 9 64
+ 2 0 2 ping 64 ------- 0 0.1 4.1 -1 65
- 2 0 2 ping 64 ------- 0 0.1 4.1 -1 65
+ 2 1 2 ping 64 ------- 0 1.1 5.1 -1 66
- 2 1 2 ping 64 ------- 0 1.1 5.1 -1 66
r 2.000005 1 2 ping 64 ------- 0 1.1 5.1 -1 66
+ 2.000005 2 3 ping 64 ------- 0 1.1 5.1 -1 66
r 2.005005 0 2 ping 64 ------- 0 0.1 4.1 -1 65
+ 2.005005 2 3 ping 64 ------- 0 0.1 4.1 -1 65
- 2.018565 2 3 tcp 1040 ------- 1 0.0 4.0 7 56
r 2.019565 2 3 tcp 1040 ------- 2 1.0 5.0 10 54
+ 2.019565 3 5 tcp 1040 ------- 2 1.0 5.0 10 54
- 2.019565 3 5 tcp 1040 ------- 2 1.0 5.0 10 54
r 2.019648 3 5 tcp 1040 ------- 2 1.0 5.0 10 54
+ 2.019648 5 3 ack 40 ------- 2 5.0 1.0 10 67
- 2.019648 5 3 ack 40 ------- 2 5.0 1.0 10 67
r 2.019652 5 3 ack 40 ------- 2 5.0 1.0 10 67
+ 2.019652 3 2 ack 40 ------- 2 5.0 1.0 10 67
- 2.019652 3 2 ack 40 ------- 2 5.0 1.0 10 67
r 2.023852 3 2 ack 40 ------- 2 5.0 1.0 10 67
+ 2.023852 2 1 ack 40 ------- 2 5.0 1.0 10 67
- 2.023852 2 1 ack 40 ------- 2 5.0 1.0 10 67
r 2.023855 2 1 ack 40 ------- 2 5.0 1.0 10 67
+ 2.023855 1 2 tcp 1040 ------- 2 1.0 5.0 12 68
- 2.023855 1 2 tcp 1040 ------- 2 1.0 5.0 12 68
+ 2.023855 1 2 tcp 1040 ------- 2 1.0 5.0 13 69
r 2.023938 1 2 tcp 1040 ------- 2 1.0 5.0 12 68
+ 2.023938 2 3 tcp 1040 ------- 2 1.0 5.0 12 68
- 2.023938 1 2 tcp 1040 ------- 2 1.0 5.0 13 69
r 2.024021 1 2 tcp 1040 ------- 2 1.0 5.0 13 69
+ 2.024021 2 3 tcp 1040 ------- 2 1.0 5.0 13 69
- 2.101765 2 3 tcp 1040 ------- 1 0.0 4.0 8 60
r 2.102765 2 3 tcp 1040 ------- 1 0.0 4.0 7 56
+ 2.102765 3 4 tcp 1040 ------- 1 0.0 4.0 7 56
- 2.102765 3 4 tcp 1040 ------- 1 0.0 4.0 7 56
r 2.107848 3 4 tcp 1040 ------- 1 0.0 4.0 7 56
+ 2.107848 4 3 ack 40 ------- 1 4.0 0.0 7 70
- 2.107848 4 3 ack 40 ------- 1 4.0 0.0 7 70
r 2.112852 4 3 ack 40 ------- 1 4.0 0.0 7 70
+ 2.112852 3 2 ack 40 ------- 1 4.0 0.0 7 70
- 2.112852 3 2 ack 40 ------- 1 4.0 0.0 7 70
r 2.117052 3 2 ack 40 ------- 1 4.0 0.0 7 70
+ 2.117052 2 0 ack 40 ------- 1 4.0 0.0 7 70
- 2.117052 2 0 ack 40 ------- 1 4.0 0.0 7 70
r 2.122055 2 0 ack 40 ------- 1 4.0 0.0 7 70
+ 2.122055 0 2 tcp 1040 ------- 1 0.0 4.0 10 71
- 2.122055 0 2 tcp 1040 ------- 1 0.0 4.0 10 71
r 2.127138 0 2 tcp 1040 ------- 1 0.0 4.0 10 71
+ 2.127138 2 3 tcp 1040 ------- 1 0.0 4.0 10 71
- 2.184965 2 3 tcp 1040 ------- 1 0.0 4.0 9 61
r 2.185965 2 3 tcp 1040 ------- 1 0.0 4.0 8 60
+ 2.185965 3 4 tcp 1040 ------- 1 0.0 4.0 8 60
- 2.185965 3 4 tcp 1040 ------- 1 0.0 4.0 8 60
r 2.191048 3 4 tcp 1040 ------- 1 0.0 4.0 8 60
+ 2.191048 4 3 ack 40 ------- 1 4.0 0.0 8 72
- 2.191048 4 3 ack 40 ------- 1 4.0 0.0 8 72
r 2.196052 4 3 ack 40 ------- 1 4.0 0.0 8 72
+ 2.196052 3 2 ack 40 ------- 1 4.0 0.0 8 72
- 2.196052 3 2 ack 40 ------- 1 4.0 0.0 8 72
r 2.200252 3 2 ack 40 ------- 1 4.0 0.0 8 72
+ 2.200252 2 0 ack 40 ------- 1 4.0 0.0 8 72
- 2.200252 2 0 ack 40 ------- 1 4.0 0.0 8 72
r 2.205255 2 0 ack 40 ------- 1 4.0 0.0 8 72
+ 2.205255 0 2 tcp 1040 ------- 1 0.0 4.0 11 73
- 2.205255 0 2 tcp 1040 ------- 1 0.0 4.0 11 73
r 2.210338 0 2 tcp 1040 ------- 1 0.0 4.0 11 73
+ 2.210338 2 3 tcp 1040 ------- 1 0.0 4.0 11 73
- 2.268165 2 3 tcp 1040 ------- 2 1.0 5.0 11 63
r 2.269165 2 3 tcp 1040 ------- 1 0.0 4.0 9 61
+ 2.269165 3 4 tcp 1040 ------- 1 0.0 4.0 9 61
- 2.269165 3 4 tcp 1040 ------- 1 0.0 4.0 9 61
r 2.274248 3 4 tcp 1040 ------- 1 0.0 4.0 9 61
+ 2.274248 4 3 ack 40 ------- 1 4.0 0.0 9 74
- 2.274248 4 3 ack 40 ------- 1 4.0 0.0 9 74
r 2.279252 4 3 ack 40 ------- 1 4.0 0.0 9 74
+ 2.279252 3 2 ack 40 ------- 1 4.0 0.0 9 74
- 2.279252 3 2 ack 40 ------- 1 4.0 0.0 9 74
r 2.283452 3 2 ack 40 ------- 1 4.0 0.0 9 74
+ 2.283452 2 0 ack 40 ------- 1 4.0 0.0 9 74
- 2.283452 2 0 ack 40 ------- 1 4.0 0.0 9 74
r 2.288455 2 0 ack 40 ------- 1 4.0 0.0 9 74
+ 2.288455 0 2 tcp 1040 ------- 1 0.0 4.0 12 75
- 2.288455 0 2 tcp 1040 ------- 1 0.0 4.0 12 75
+ 2.288455 0 2 tcp 1040 ------- 1 0.0 4.0 13 76
- 2.288538 0 2 tcp 1040 ------- 1 0.0 4.0 13 76
r 2.293538 0 2 tcp 1040 ------- 1 0.0 4.0 12 75
+ 2.293538 2 3 tcp 1040 ------- 1 0.0 4.0 12 75
r 2.293621 0 2 tcp 1040 ------- 1 0.0 4.0 13 76
+ 2.293621 2 3 tcp 1040 ------- 1 0.0 4.0 13 76
- 2.351365 2 3 ping 64 ------- 0 1.1 5.1 -1 66
r 2.352365 2 3 tcp 1040 ------- 2 1.0 5.0 11 63
+ 2.352365 3 5 tcp 1040 ------- 2 1.0 5.0 11 63
- 2.352365 3 5 tcp 1040 ------- 2 1.0 5.0 11 63
r 2.352448 3 5 tcp 1040 ------- 2 1.0 5.0 11 63
+ 2.352448 5 3 ack 40 ------- 2 5.0 1.0 11 77
- 2.352448 5 3 ack 40 ------- 2 5.0 1.0 11 77
r 2.352452 5 3 ack 40 ------- 2 5.0 1.0 11 77
+ 2.352452 3 2 ack 40 ------- 2 5.0 1.0 11 77
- 2.352452 3 2 ack 40 ------- 2 5.0 1.0 11 77
- 2.356485 2 3 ping 64 ------- 0 0.1 4.1 -1 65
r 2.356652 3 2 ack 40 ------- 2 5.0 1.0 11 77
+ 2.356652 2 1 ack 40 ------- 2 5.0 1.0 11 77
- 2.356652 2 1 ack 40 ------- 2 5.0 1.0 11 77
r 2.356655 2 1 ack 40 ------- 2 5.0 1.0 11 77
+ 2.356655 1 2 tcp 1040 ------- 2 1.0 5.0 14 78
- 2.356655 1 2 tcp 1040 ------- 2 1.0 5.0 14 78
r 2.356738 1 2 tcp 1040 ------- 2 1.0 5.0 14 78
+ 2.356738 2 3 tcp 1040 ------- 2 1.0 5.0 14 78
r 2.357485 2 3 ping 64 ------- 0 1.1 5.1 -1 66