V -t * -v 1.0a5 -a 0
A -t * -n 1 -p 0 -o 0x7fffffff -c 30 -a 1
A -t * -h 1 -m 1073741823 -s 0
c -t * -i 1 -n Blue
c -t * -i 2 -n Red
n -t * -a 4 -s 4 -S UP -v circle -c black -i black
n -t * -a 0 -s 0 -S UP -v circle -c black -i black
n -t * -a 5 -s 5 -S UP -v circle -c black -i black
n -t * -a 1 -s 1 -S UP -v circle -c black -i black
n -t * -a 2 -s 2 -S UP -v circle -c black -i black
n -t * -a 3 -s 3 -S UP -v circle -c black -i black
l -t * -s 2 -d 3 -S UP -r 100000 -D 0.001 -c black
l -t * -s 0 -d 2 -S UP -r 100000000 -D 0.0050000000000000001 -c black -o left-up
l -t * -s 1 -d 2 -S UP -r 100000000 -D 0 -c black -o left-down
l -t * -s 3 -d 4 -S UP -r 100000000 -D 0.0050000000000000001 -c black -o right-up
l -t * -s 3 -d 5 -S UP -r 100000000 -D 0 -c black -o right-down
q -t * -s 2 -d 0 -a 0.5
q -t * -s 0 -d 2 -a 0.5
q -t * -s 2 -d 1 -a 0.5
q -t * -s 1 -d 2 -a 0.5
q -t * -s 3 -d 4 -a 0.5
q -t * -s 4 -d 3 -a 0.5
q -t * -s 3 -d 5 -a 0.5
q -t * -s 5 -d 3 -a 0.5
q -t * -s 3 -d 2 -a 0.5
q -t * -s 2 -d 3 -a 0.5
+ -t 0 -s 0 -d 2 -p tcp -e 40 -c 1 -i 0 -a 1 -x {0.0 4.0 0 ------- null}
- -t 0 -s 0 -d 2 -p tcp -e 40 -c 1 -i 0 -a 1 -x {0.0 4.0 0 ------- null}
h -t 0 -s 0 -d 2 -p tcp -e 40 -c 1 -i 0 -a 1 -x {0.0 4.0 -1 ------- null}
+ -t 0 -s 0 -d 2 -p ping -e 64 -c 0 -i 1 -a 0 -x {0.1 4.1 -1 ------- null}
+ -t 0 -s 1 -d 2 -p ping -e 64 -c 0 -i 2 -a 0 -x {1.1 5.1 -1 ------- null}
- -t 0 -s 1 -d 2 -p ping -e 64 -c 0 -i 2 -a 0 -x {1.1 5.1 -1 ------- null}
h -t 0 -s 1 -d 2 -p ping -e 64 -c 0 -i 2 -a 0 -x {1.1 5.1 -1 ------- null}
+ -t 0 -s 1 -d 2 -p tcp -e 40 -c 2 -i 3 -a 2 -x {1.0 5.0 0 ------- null}
- -t 3.2e-06 -s 0 -d 2 -p ping -e 64 -c 0 -i 1 -a 0 -x {0.1 4.1 -1 ------- null}
h -t 3.2e-06 -s 0 -d 2 -p ping -e 64 -c 0 -i 1 -a 0 -x {0.1 4.1 -1 ------- null}
r -t 5.12e-06 -s 1 -d 2 -p ping -e 64 -c 0 -i 2 -a 0 -x {1.1 5.1 -1 ------- null}
+ -t 5.12e-06 -s 2 -d 3 -p ping -e 64 -c 0 -i 2 -a 0 -x {1.1 5.1 -1 ------- null}
- -t 5.12e-06 -s 2 -d 3 -p ping -e 64 -c 0 -i 2 -a 0 -x {1.1 5.1 -1 ------- null}
h -t 5.12e-06 -s 2 -d 3 -p ping -e 64 -c 0 -i 2 -a 0 -x {1.1 5.1 -1 ------- null}
- -t 5.12e-06 -s 1 -d 2 -p tcp -e 40 -c 2 -i 3 -a 2 -x {1.0 5.0 0 ------- null}
h -t 5.12e-06 -s 1 -d 2 -p tcp -e 40 -c 2 -i 3 -a 2 -x {1.0 5.0 -1 ------- null}
r -t 8.32e-06 -s 1 -d 2 -p tcp -e 40 -c 2 -i 3 -a 2 -x {1.0 5.0 0 ------- null}
+ -t 8.32e-06 -s 2 -d 3 -p tcp -e 40 -c 2 -i 3 -a 2 -x {1.0 5.0 0 ------- null}
r -t 0.0050032 -s 0 -d 2 -p tcp -e 40 -c 1 -i 0 -a 1 -x {0.0 4.0 0 ------- null}
+ -t 0.0050032 -s 2 -d 3 -p tcp -e 40 -c 1 -i 0 -a 1 -x {0.0 4.0 0 ------- null}
r -t 0.00500832 -s 0 -d 2 -p ping -e 64 -c 0 -i 1 -a 0 -x {0.1 4.1 -1 ------- null}
+ -t 0.00500832 -s 2 -d 3 -p ping -e 64 -c 0 -i 1 -a 0 -x {0.1 4.1 -1 ------- null}
- -t 0.00512512 -s 2 -d 3 -p tcp -e 40 -c 2 -i 3 -a 2 -x {1.0 5.0 0 ------- null}
h -t 0.00512512 -s 2 -d 3 -p tcp -e 40 -c 2 -i 3 -a 2 -x {1.0 5.0 -1 ------- null}
r -t 0.00612512 -s 2 -d 3 -p ping -e 64 -c 0 -i 2 -a 0 -x {1.1 5.1 -1 ------- null}
+ -t 0.00612512 -s 3 -d 5 -p ping -e 64 -c 0 -i 2 -a 0 -x {1.1 5.1 -1 ------- null}
- -t 0.00612512 -s 3 -d 5 -p ping -e 64 -c 0 -i 2 -a 0 -x {1.1 5.1 -1 ------- null}
h -t 0.00612512 -s 3 -d 5 -p ping -e 64 -c 0 -i 2 -a 0 -x {1.1 5.1 -1 ------- null}
r -t 0.00613024 -s 3 -d 5 -p ping -e 64 -c 0 -i 2 -a 0 -x {1.1 5.1 -1 ------- null}
+ -t 0.00613024 -s 5 -d 3 -p ping -e 64 -c 0 -i 4 -a 0 -x {5.1 1.1 -1 ------- null}
- -t 0.00613024 -s 5 -d 3 -p ping -e 64 -c 0 -i 4 -a 0 -x {5.1 1.1 -1 ------- null}
h -t 0.00613024 -s 5 -d 3 -p ping -e 64 -c 0 -i 4 -a 0 -x {5.1 1.1 -1 ------- null}
r -t 0.00613536 -s 5 -d 3 -p ping -e 64 -c 0 -i 4 -a 0 -x {5.1 1.1 -1 ------- null}
+ -t 0.00613536 -s 3 -d 2 -p ping -e 64 -c 0 -i 4 -a 0 -x {5.1 1.1 -1 ------- null}
- -t 0.00613536 -s 3 -d 2 -p ping -e 64 -c 0 -i 4 -a 0 -x {5.1 1.1 -1 ------- null}
h -t 0.00613536 -s 3 -d 2 -p ping -e 64 -c 0 -i 4 -a 0 -x {5.1 1.1 -1 ------- null}
- -t 0.00832512 -s 2 -d 3 -p tcp -e 40 -c 1 -i 0 -a 1 -x {0.0 4.0 0 ------- null}
h -t 0.00832512 -s 2 -d 3 -p tcp -e 40 -c 1 -i 0 -a 1 -x {0.0 4.0 -1 ------- null}
r -t 0.00932512 -s 2 -d 3 -p tcp -e 40 -c 2 -i 3 -a 2 -x {1.0 5.0 0 ------- null}
+ -t 0.00932512 -s 3 -d 5 -p tcp -e 40 -c 2 -i 3 -a 2 -x {1.0 5.0 0 ------- null}
- -t 0.00932512 -s 3 -d 5 -p tcp -e 40 -c 2 -i 3 -a 2 -x {1.0 5.0 0 ------- null}
h -t 0.00932512 -s 3 -d 5 -p tcp -e 40 -c 2 -i 3 -a 2 -x {1.0 5.0 -1 ------- null}
r -t 0.00932832 -s 3 -d 5 -p tcp -e 40 -c 2 -i 3 -a 2 -x {1.0 5.0 0 ------- null}
+ -t 0.00932832 -s 5 -d 3 -p ack -e 40 -c 2 -i 5 -a 2 -x {5.0 1.0 0 ------- null}
- -t 0.00932832 -s 5 -d 3 -p ack -e 40 -c 2 -i 5 -a 2 -x {5.0 1.0 0 ------- null}
h -t 0.00932832 -s 5 -d 3 -p ack -e 40 -c 2 -i 5 -a 2 -x {5.0 1.0 -1 ------- null}
r -t 0.00933152 -s 5 -d 3 -p ack -e 40 -c 2 -i 5 -a 2 -x {5.0 1.0 0 ------- null}
+ -t 0.00933152 -s 3 -d 2 -p ack -e 40 -c 2 -i 5 -a 2 -x {5.0 1.0 0 ------- null}
- -t 0.01125536 -s 3 -d 2 -p ack -e 40 -c 2 -i 5 -a 2 -x {5.0 1.0 0 ------- null}
h -t 0.01125536 -s 3 -d 2 -p ack -e 40 -c 2 -i 5 -a 2 -x {5.0 1.0 -1 ------- null}
- -t 0.01152512 -s 2 -d 3 -p ping -e 64 -c 0 -i 1 -a 0 -x {0.1 4.1 -1 ------- null}
h -t 0.01152512 -s 2 -d 3 -p ping -e 64 -c 0 -i 1 -a 0 -x {0.1 4.1 -1 ------- null}
r -t 0.01225536 -s 3 -d 2 -p ping -e 64 -c 0 -i 4 -a 0 -x {5.1 1.1 -1 ------- null}
+ -t 0.01225536 -s 2 -d 1 -p ping -e 64 -c 0 -i 4 -a 0 -x {5.1 1.1 -1 ------- null}
- -t 0.01225536 -s 2 -d 1 -p ping -e 64 -c 0 -i 4 -a 0 -x {5.1 1.1 -1 ------- null}
h -t 0.01225536 -s 2 -d 1 -p ping -e 64 -c 0 -i 4 -a 0 -x {5.1 1.1 -1 ------- null}
r -t 0.01226048 -s 2 -d 1 -p ping -e 64 -c 0 -i 4 -a 0 -x {5.1 1.1 -1 ------- null}
r -t 0.01252512 -s 2 -d 3 -p tcp -e 40 -c 1 -i 0 -a 1 -x {0.0 4.0 0 ------- null}
+ -t 0.01252512 -s 3 -d 4 -p tcp -e 40 -c 1 -i 0 -a 1 -x {0.0 4.0 0 ------- null}
- -t 0.01252512 -s 3 -d 4 -p tcp -e 40 -c 1 -i 0 -a 1 -x {0.0 4.0 0 ------- null}
h -t 0.01252512 -s 3 -d 4 -p tcp -e 40 -c 1 -i 0 -a 1 -x {0.0 4.0 -1 ------- null}
r -t 0.01545536 -s 3 -d 2 -p ack -e 40 -c 2 -i 5 -a 2 -x {5.0 1.0 0 ------- null}
+ -t 0.01545536 -s 2 -d 1 -p ack -e 40 -c 2 -i 5 -a 2 -x {5.0 1.0 0 ------- null}
- -t 0.01545536 -s 2 -d 1 -p ack -e 40 -c 2 -i 5 -a 2 -x {5.0 1.0 0 ------- null}
h -t 0.01545536 -s 2 -d 1 -p ack -e 40 -c 2 -i 5 -a 2 -x {5.0 1.0 -1 ------- null}
r -t 0.01545856 -s 2 -d 1 -p ack -e 40 -c 2 -i 5 -a 2 -x {5.0 1.0 0 ------- null}
+ -t 0.01545856 -s 1 -d 2 -p tcp -e 1040 -c 2 -i 6 -a 2 -x {1.0 5.0 1 ------- null}
- -t 0.01545856 -s 1 -d 2 -p tcp -e 1040 -c 2 -i 6 -a 2 -x {1.0 5.0 1 ------- null}
h -t 0.01545856 -s 1 -d 2 -p tcp -e 1040 -c 2 -i 6 -a 2 -x {1.0 5.0 -1 ------- null}
+ -t 0.01545856 -s 1 -d 2 -p tcp -e 1040 -c 2 -i 7 -a 2 -x {1.0 5.0 2 ------- null}
r -t 0.01554176 -s 1 -d 2 -p tcp -e 1040 -c 2 -i 6 -a 2 -x {1.0 5.0 1 ------- null}
+ -t 0.01554176 -s 2 -d 3 -p tcp -e 1040 -c 2 -i 6 -a 2 -x {1.0 5.0 1 ------- null}
- -t 0.01554176 -s 1 -d 2 -p tcp -e 1040 -c 2 -i 7 -a 2 -x {1.0 5.0 2 ------- null}
h -t 0.01554176 -s 1 -d 2 -p tcp -e 1040 -c 2 -i 7 -a 2 -x {1.0 5.0 -1 ------- null}
r -t 0.01562496 -s 1 -d 2 -p tcp -e 1040 -c 2 -i 7 -a 2 -x {1.0 5.0 2 ------- null}
+ -t 0.01562496 -s 2 -d 3 -p tcp -e 1040 -c 2 -i 7 -a 2 -x {1.0 5.0 2 ------- null}
- -t 0.01664512 -s 2 -d 3 -p tcp -e 1040 -c 2 -i 6 -a 2 -x {1.0 5.0 1 ------- null}
h -t 0.01664512 -s 2 -d 3 -p tcp -e 1040 -c 2 -i 6 -a 2 -x {1.0 5.0 -1 ------- null}
r -t 0.01752832 -s 3 -d 4 -p tcp -e 40 -c 1 -i 0 -a 1 -x {0.0 4.0 0 ------- null}
+ -t 0.01752832 -s 4 -d 3 -p ack -e 40 -c 1 -i 8 -a 1 -x {4.0 0.0 0 ------- null}
- -t 0.01752832 -s 4 -d 3 -p ack -e 40 -c 1 -i 8 -a 1 -x {4.0 0.0 0 ------- null}
h -t 0.01752832 -s 4 -d 3 -p ack -e 40 -c 1 -i 8 -a 1 -x {4.0 0.0 -1 ------- null}
r -t 0.01764512 -s 2 -d 3 -p ping -e 64 -c 0 -i 1 -a 0 -x {0.1 4.1 -1 ------- null}
+ -t 0.01764512 -s 3 -d 4 -p ping -e 64 -c 0 -i 1 -a 0 -x {0.1 4.1 -1 ------- null}
- -t 0.01764512 -s 3 -d 4 -p ping -e 64 -c 0 -i 1 -a 0 -x {0.1 4.1 -1 ------- null}
h -t 0.01764512 -s 3 -d 4 -p ping -e 64 -c 0 -i 1 -a 0 -x {0.1 4.1 -1 ------- null}
r -t 0.02253152 -s 4 -d 3 -p ack -e 40 -c 1 -i 8 -a 1 -x {4.0 0.0 0 ------- null}
+ -t 0.02253152 -s 3 -d 2 -p ack -e 40 -c 1 -i 8 -a 1 -x {4.0 0.0 0 ------- null}
- -t 0.02253152 -s 3 -d 2 -p ack -e 40 -c 1 -i 8 -a 1 -x {4.0 0.0 0 ------- null}
h -t 0.02253152 -s 3 -d 2 -p ack -e 40 -c 1 -i 8 -a 1 -x {4.0 0.0 -1 ------- null}
r -t 0.02265024 -s 3 -d 4 -p ping -e 64 -c 0 -i 1 -a 0 -x {0.1 4.1 -1 ------- null}
+ -t 0.02265024 -s 4 -d 3 -p ping -e 64 -c 0 -i 9 -a 0 -x {4.1 0.1 -1 ------- null}
- -t 0.02265024 -s 4 -d 3 -p ping -e 64 -c 0 -i 9 -a 0 -x {4.1 0.1 -1 ------- null}
h -t 0.02265024 -s 4 -d 3 -p ping -e 64 -c 0 -i 9 -a 0 -x {4.1 0.1 -1 ------- null}
r -t 0.02673152 -s 3 -d 2 -p ack -e 40 -c 1 -i 8 -a 1 -x {4.0 0.0 0 ------- null}
+ -t 0.02673152 -s 2 -d 0 -p ack -e 40 -c 1 -i 8 -a 1 -x {4.0 0.0 0 ------- null}
- -t 0.02673152 -s 2 -d 0 -p ack -e 40 -c 1 -i 8 -a 1 -x {4.0 0.0 0 ------- null}
h -t 0.02673152 -s 2 -d 0 -p ack -e 40 -c 1 -i 8 -a 1 -x {4.0 0.0 -1 ------- null}
r -t 0.02765536 -s 4 -d 3 -p ping -e 64 -c 0 -i 9 -a 0 -x {4.1 0.1 -1 ------- null}
+ -t 0.02765536 -s 3 -d 2 -p ping -e 64 -c 0 -i 9 -a 0 -x {4.1 0.1 -1 ------- null}
- -t 0.02765536 -s 3 -d 2 -p ping -e 64 -c 0 -i 9 -a 0 -x {4.1 0.1 -1 ------- null}
h -t 0.02765536 -s 3 -d 2 -p ping -e 64 -c 0 -i 9 -a 0 -x {4.1 0.1 -1 ------- null}
r -t 0.03173472 -s 2 -d 0 -p ack -e 40 -c 1 -i 8 -a 1 -x {4.0 0.0 0 ------- null}
+ -t 0.03173472 -s 0 -d 2 -p tcp -e 1040 -c 1 -i 10 -a 1 -x {0.0 4.0 1 ------- null}
- -t 0.03173472 -s 0 -d 2 -p tcp -e 1040 -c 1 -i 10 -a 1 -x {0.0 4.0 1 ------- null}
h -t 0.03173472 -s 0 -d 2 -p tcp -e 1040 -c 1 -i 10 -a 1 -x {0.0 4.0 -1 ------- null}
+ -t 0.03173472 -s 0 -d 2 -p tcp -e 1040 -c 1 -i 11 -a 1 -x {0.0 4.0 2 ------- null}
- -t 0.03181792 -s 0 -d 2 -p tcp -e 1040 -c 1 -i 11 -a 1 -x {0.0 4.0 2 ------- null}
h -t 0.03181792 -s 0 -d 2 -p tcp -e 1040 -c 1 -i 11 -a 1 -x {0.0 4.0 -1 ------- null}
r -t 0.03377536 -s 3 -d 2 -p ping -e 64 -c 0 -i 9 -a 0 -x {4.1 0.1 -1 ------- null}
+ -t 0.03377536 -s 2 -d 0 -p ping -e 64 -c 0 -i 9 -a 0 -x {4.1 0.1 -1 ------- null}
- -t 0.03377536 -s 2 -d 0 -p ping -e 64 -c 0 -i 9 -a 0 -x {4.1 0.1 -1 ------- null}
h -t 0.03377536 -s 2 -d 0 -p ping -e 64 -c 0 -i 9 -a 0 -x {4.1 0.1 -1 ------- null}
r -t 0.03681792 -s 0 -d 2 -p tcp -e 1040 -c 1 -i 10 -a 1 -x {0.0 4.0 1 ------- null}
+ -t 0.03681792 -s 2 -d 3 -p tcp -e 1040 -c 1 -i 10 -a 1 -x {0.0 4.0 1 ------- null}
r -t 0.03690112 -s 0 -d 2 -p tcp -e 1040 -c 1 -i 11 -a 1 -x {0.0 4.0 2 ------- null}
+ -t 0.03690112 -s 2 -d 3 -p tcp -e 1040 -c 1 -i 11 -a 1 -x {0.0 4.0 2 ------- null}
r -t 0.03878048 -s 2 -d 0 -p ping -e 64 -c 0 -i 9 -a 0 -x {4.1 0.1 -1 ------- null}
- -t 0.09984512 -s 2 -d 3 -p tcp -e 1040 -c 2 -i 7 -a 2 -x {1.0 5.0 2 ------- null}
h -t 0.09984512 -s 2 -d 3 -p tcp -e 1040 -c 2 -i 7 -a 2 -x {1.0 5.0 -1 ------- null}
r -t 0.10084512 -s 2 -d 3 -p tcp -e 1040 -c 2 -i 6 -a 2 -x {1.0 5.0 1 ------- null}
+ -t 0.10084512 -s 3 -d 5 -p tcp -e 1040 -c 2 -i 6 -a 2 -x {1.0 5.0 1 ------- null}
- -t 0.10084512 -s 3 -d 5 -p tcp -e 1040 -c 2 -i 6 -a 2 -x {1.0 5.0 1 ------- null}
h -t 0.10084512 -s 3 -d 5 -p tcp -e 1040 -c 2 -i 6 -a 2 -x {1.0 5.0 -1 ------- null}
r -t 0.10092832 -s 3 -d 5 -p tcp -e 1040 -c 2 -i 6 -a 2 -x {1.0 5.0 1 ------- null}
+ -t 0.10092832 -s 5 -d 3 -p ack -e 40 -c 2 -i 12 -a 2 -x {5.0 1.0 1 ------- null}
- -t 0.10092832 -s 5 -d 3 -p ack -e 40 -c 2 -i 12 -a 2 -x {5.0 1.0 1 ------- null}
h -t 0.10092832 -s 5 -d 3 -p ack -e 40 -c 2 -i 12 -a 2 -x {5.0 1.0 -1 ------- null}
r -t 0.10093152 -s 5 -d 3 -p ack -e 40 -c 2 -i 12 -a 2 -x {5.0 1.0 1 ------- null}
+ -t 0.10093152 -s 3 -d 2 -p ack -e 40 -c 2 -i 12 -a 2 -x {5.0 1.0 1 ------- null}
- -t 0.10093152 -s 3 -d 2 -p ack -e 40 -c 2 -i 12 -a 2 -x {5.0 1.0 1 ------- null}
h -t 0.10093152 -s 3 -d 2 -p ack -e 40 -c 2 -i 12 -a 2 -x {5.0 1.0 -1 ------- null}
r -t 0.10513152 -s 3 -d 2 -p ack -e 40 -c 2 -i 12 -a 2 -x {5.0 1.0 1 ------- null}
+ -t 0.10513152 -s 2 -d 1 -p ack -e 40 -c 2 -i 12 -a 2 -x {5.0 1.0 1 ------- null}
- -t 0.10513152 -s 2 -d 1 -p ack -e 40 -c 2 -i 12 -a 2 -x {5.0 1.0 1 ------- null}
h -t 0.10513152 -s 2 -d 1 -p ack -e 40 -c 2 -i 12 -a 2 -x {5.0 1.0 -1 ------- null}
r -t 0.10513472 -s 2 -d 1 -p ack -e 40 -c 2 -i 12 -a 2 -x {5.0 1.0 1 ------- null}
+ -t 0.10513472 -s 1 -d 2 -p tcp -e 1040 -c 2 -i 13 -a 2 -x {1.0 5.0 3 ------- null}
- -t 0.10513472 -s 1 -d 2 -p tcp -e 1040 -c 2 -i 13 -a 2 -x {1.0 5.0 3 ------- null}
h -t 0.10513472 -s 1 -d 2 -p tcp -e 1040 -c 2 -i 13 -a 2 -x {1.0 5.0 -1 ------- null}
+ -t 0.10513472 -s 1 -d 2 -p tcp -e 1040 -c 2 -i 14 -a 2 -x {1.0 5.0 4 ------- null}
r -t 0.10521792 -s 1 -d 2 -p tcp -e 1040 -c 2 -i 13 -a 2 -x {1.0 5.0 3 ------- null}
+ -t 0.10521792 -s 2 -d 3 -p tcp -e 1040 -c 2 -i 13 -a 2 -x {1.0 5.0 3 ------- null}
- -t 0.10521792 -s 1 -d 2 -p tcp -e 1040 -c 2 -i 14 -a 2 -x {1.0 5.0 4 ------- null}
h -t 0.10521792 -s 1 -d 2 -p tcp -e 1040 -c 2 -i 14 -a 2 -x {1.0 5.0 -1 ------- null}
r -t 0.10530112 -s 1 -d 2 -p tcp -e 1040 -c 2 -i 14 -a 2 -x {1.0 5.0 4 ------- null}
+ -t 0.10530112 -s 2 -d 3 -p tcp -e 1040 -c 2 -i 14 -a 2 -x {1.0 5.0 4 ------- null}
- -t 0.18304512 -s 2 -d 3 -p tcp -e 1040 -c 1 -i 10 -a 1 -x {0.0 4.0 1 ------- null}
h -t 0.18304512 -s 2 -d 3 -p tcp -e 1040 -c 1 -i 10 -a 1 -x {0.0 4.0 -1 ------- null}
r -t 0.18404512 -s 2 -d 3 -p tcp -e 1040 -c 2 -i 7 -a 2 -x {1.0 5.0 2 ------- null}
+ -t 0.18404512 -s 3 -d 5 -p tcp -e 1040 -c 2 -i 7 -a 2 -x {1.0 5.0 2 ------- null}
- -t 0.18404512 -s 3 -d 5 -p tcp -e 1040 -c 2 -i 7 -a 2 -x {1.0 5.0 2 ------- null}
h -t 0.18404512 -s 3 -d 5 -p tcp -e 1040 -c 2 -i 7 -a 2 -x {1.0 5.0 -1 ------- null}
r -t 0.18412832 -s 3 -d 5 -p tcp -e 1040 -c 2 -i 7 -a 2 -x {1.0 5.0 2 ------- null}
+ -t 0.18412832 -s 5 -d 3 -p ack -e 40 -c 2 -i 15 -a 2 -x {5.0 1.0 2 ------- null}
- -t 0.18412832 -s 5 -d 3 -p ack -e 40 -c 2 -i 15 -a 2 -x {5.0 1.0 2 ------- null}
h -t 0.18412832 -s 5 -d 3 -p ack -e 40 -c 2 -i 15 -a 2 -x {5.0 1.0 -1 ------- null}
r -t 0.18413152 -s 5 -d 3 -p ack -e 40 -c 2 -i 15 -a 2 -x {5.0 1.0 2 ------- null}
+ -t 0.18413152 -s 3 -d 2 -p ack -e 40 -c 2 -i 15 -a 2 -x {5.0 1.0 2 ------- null}
- -t 0.18413152 -s 3 -d 2 -p ack -e 40 -c 2 -i 15 -a 2 -x {5.0 1.0 2 ------- null}
h -t 0.18413152 -s 3 -d 2 -p ack -e 40 -c 2 -i 15 -a 2 -x {5.0 1.0 -1 ------- null}
r -t 0.18833152 -s 3 -d 2 -p ack -e 40 -c 2 -i 15 -a 2 -x {5.0 1.0 2 ------- null}
+ -t 0.18833152 -s 2 -d 1 -p ack -e 40 -c 2 -i 15 -a 2 -x {5.0 1.0 2 ------- null}
- -t 0.18833152 -s 2 -d 1 -p ack -e 40 -c 2 -i 15 -a 2 -x {5.0 1.0 2 ------- null}
h -t 0.18833152 -s 2 -d 1 -p ack -e 40 -c 2 -i 15 -a 2 -x {5.0 1.0 -1 ------- null}
r -t 0.18833472 -s 2 -d 1 -p ack -e 40 -c 2 -i 15 -a 2 -x {5.0 1.0 2 ------- null}
+ -t 0.18833472 -s 1 -d 2 -p tcp -e 1040 -c 2 -i 16 -a 2 -x {1.0 5.0 5 ------- null}
- -t 0.18833472 -s 1 -d 2 -p tcp -e 1040 -c 2 -i 16 -a 2 -x {1.0 5.0 5 ------- null}
h -t 0.18833472 -s 1 -d 2 -p tcp -e 1040 -c 2 -i 16 -a 2 -x {1.0 5.0 -1 ------- null}
+ -t 0.18833472 -s 1 -d 2 -p tcp -e 1040 -c 2 -i 17 -a 2 -x {1.0 5.0 6 ------- null}
r -t 0.18841792 -s 1 -d 2 -p tcp -e 1040 -c 2 -i 16 -a 2 -x {1.0 5.0 5 ------- null}
+ -t 0.18841792 -s 2 -d 3 -p tcp -e 1040 -c 2 -i 16 -a 2 -x {1.0 5.0 5 ------- null}
- -t 0.18841792 -s 1 -d 2 -p tcp -e 1040 -c 2 -i 17 -a 2 -x {1.0 5.0 6 ------- null}
h -t 0.18841792 -s 1 -d 2 -p tcp -e 1040 -c 2 -i 17 -a 2 -x {1.0 5.0 -1 ------- null}
r -t 0.18850112 -s 1 -d 2 -p tcp -e 1040 -c 2 -i 17 -a 2 -x {1.0 5.0 6 ------- null}
+ -t 0.18850112 -s 2 -d 3 -p tcp -e 1040 -c 2 -i 17 -a 2 -x {1.0 5.0 6 ------- null}
+ -t 0.23173472 -s 0 -d 2 -p tcp -e 1040 -c 1 -i 18 -a 1 -x {0.0 4.0 1 ---A--- null}
- -t 0.23173472 -s 0 -d 2 -p tcp -e 1040 -c 1 -i 18 -a 1 -x {0.0 4.0 1 ---A--- null}
h -t 0.23173472 -s 0 -d 2 -p tcp -e 1040 -c 1 -i 18 -a 1 -x {0.0 4.0 -1 ---A--- null}
r -t 0.23681792 -s 0 -d 2 -p tcp -e 1040 -c 1 -i 18 -a 1 -x {0.0 4.0 1 ---A--- null}
+ -t 0.23681792 -s 2 -d 3 -p tcp -e 1040 -c 1 -i 18 -a 1 -x {0.0 4.0 1 ---A--- null}
- -t 0.26624512 -s 2 -d 3 -p tcp -e 1040 -c 1 -i 11 -a 1 -x {0.0 4.0 2 ------- null}
h -t 0.26624512 -s 2 -d 3 -p tcp -e 1040 -c 1 -i 11 -a 1 -x {0.0 4.0 -1 ------- null}
r -t 0.26724512 -s 2 -d 3 -p tcp -e 1040 -c 1 -i 10 -a 1 -x {0.0 4.0 1 ------- null}
+ -t 0.26724512 -s 3 -d 4 -p tcp -e 1040 -c 1 -i 10 -a 1 -x {0.0 4.0 1 ------- null}
- -t 0.26724512 -s 3 -d 4 -p tcp -e 1040 -c 1 -i 10 -a 1 -x {0.0 4.0 1 ------- null}
h -t 0.26724512 -s 3 -d 4 -p tcp -e 1040 -c 1 -i 10 -a 1 -x {0.0 4.0 -1 ------- null}
r -t 0.27232832 -s 3 -d 4 -p tcp -e 1040 -c 1 -i 10 -a 1 -x {0.0 4.0 1 ------- null}
+ -t 0.27232832 -s 4 -d 3 -p ack -e 40 -c 1 -i 19 -a 1 -x {4.0 0.0 1 ------- null}
- -t 0.27232832 -s 4 -d 3 -p ack -e 40 -c 1 -i 19 -a 1 -x {4.0 0.0 1 ------- null}
h -t 0.27232832 -s 4 -d 3 -p ack -e 40 -c 1 -i 19 -a 1 -x {4.0 0.0 -1 ------- null}
r -t 0.27733152 -s 4 -d 3 -p ack -e 40 -c 1 -i 19 -a 1 -x {4.0 0.0 1 ------- null}
+ -t 0.27733152 -s 3 -d 2 -p ack -e 40 -c 1 -i 19 -a 1 -x {4.0 0.0 1 ------- null}
- -t 0.27733152 -s 3 -d 2 -p ack -e 40 -c 1 -i 19 -a 1 -x {4.0 0.0 1 ------- null}
h -t 0.27733152 -s 3 -d 2 -p ack -e 40 -c 1 -i 19 -a 1 -x {4.0 0.0 -1 ------- null}
r -t 0.28153152 -s 3 -d 2 -p ack -e 40 -c 1 -i 19 -a 1 -x {4.0 0.0 1 ------- null}
+ -t 0.28153152 -s 2 -d 0 -p ack -e 40 -c 1 -i 19 -a 1 -x {4.0 0.0 1 ------- null}
- -t 0.28153152 -s 2 -d 0 -p ack -e 40 -c 1 -i 19 -a 1 -x {4.0 0.0 1 ------- null}
h -t 0.28153152 -s 2 -d 0 -p ack -e 40 -c 1 -i 19 -a 1 -x {4.0 0.0 -1 ------- null}
r -t 0.28653472 -s 2 -d 0 -p ack -e 40 -c 1 -i 19 -a 1 -x {4.0 0.0 1 ------- null}
+ -t 0.28653472 -s 0 -d 2 -p tcp -e 1040 -c 1 -i 20 -a 1 -x {0.0 4.0 2 ------- null}
- -t 0.28653472 -s 0 -d 2 -p tcp -e 1040 -c 1 -i 20 -a 1 -x {0.0 4.0 2 ------- null}
h -t 0.28653472 -s 0 -d 2 -p tcp -e 1040 -c 1 -i 20 -a 1 -x {0.0 4.0 -1 ------- null}
+ -t 0.28653472 -s 0 -d 2 -p tcp -e 1040 -c 1 -i 21 -a 1 -x {0.0 4.0 3 ------- null}
- -t 0.28661792 -s 0 -d 2 -p tcp -e 1040 -c 1 -i 21 -a 1 -x {0.0 4.0 3 ------- null}
h -t 0.28661792 -s 0 -d 2 -p tcp -e 1040 -c 1 -i 21 -a 1 -x {0.0 4.0 -1 ------- null}
r -t 0.29161792 -s 0 -d 2 -p tcp -e 1040 -c 1 -i 20 -a 1 -x {0.0 4.0 2 ------- null}
+ -t 0.29161792 -s 2 -d 3 -p tcp -e 1040 -c 1 -i 20 -a 1 -x {0.0 4.0 2 ------- null}
r -t 0.29170112 -s 0 -d 2 -p tcp -e 1040 -c 1 -i 21 -a 1 -x {0.0 4.0 3 ------- null}
+ -t 0.29170112 -s 2 -d 3 -p tcp -e 1040 -c 1 -i 21 -a 1 -x {0.0 4.0 3 ------- null}
- -t 0.34944512 -s 2 -d 3 -p tcp -e 1040 -c 2 -i 13 -a 2 -x {1.0 5.0 3 ------- null}
h -t 0.34944512 -s 2 -d 3 -p tcp -e 1040 -c 2 -i 13 -a 2 -x {1.0 5.0 -1 ------- null}
r -t 0.35044512 -s 2 -d 3 -p tcp -e 1040 -c 1 -i 11 -a 1 -x {0.0 4.0 2 ------- null}
+ -t 0.35044512 -s 3 -d 4 -p tcp -e 1040 -c 1 -i 11 -a 1 -x {0.0 4.0 2 ------- null}
- -t 0.35044512 -s 3 -d 4 -p tcp -e 1040 -c 1 -i 11 -a 1 -x {0.0 4.0 2 ------- null}
h -t 0.35044512 -s 3 -d 4 -p tcp -e 1040 -c 1 -i 11 -a 1 -x {0.0 4.0 -1 ------- null}
r -t 0.35552832 -s 3 -d 4 -p tcp -e 1040 -c 1 -i 11 -a 1 -x {0.0 4.0 2 ------- null}
+ -t 0.35552832 -s 4 -d 3 -p ack -e 40 -c 1 -i 22 -a 1 -x {4.0 0.0 2 ------- null}
- -t 0.35552832 -s 4 -d 3 -p ack -e 40 -c 1 -i 22 -a 1 -x {4.0 0.0 2 ------- null}
h -t 0.35552832 -s 4 -d 3 -p ack -e 40 -c 1 -i 22 -a 1 -x {4.0 0.0 -1 ------- null}
r -t 0.36053152 -s 4 -d 3 -p ack -e 40 -c 1 -i 22 -a 1 -x {4.0 0.0 2 ------- null}
+ -t 0.36053152 -s 3 -d 2 -p ack -e 40 -c 1 -i 22 -a 1 -x {4.0 0.0 2 ------- null}
- -t 0.36053152 -s 3 -d 2 -p ack -e 40 -c 1 -i 22 -a 1 -x {4.0 0.0 2 ------- null}
h -t 0.36053152 -s 3 -d 2 -p ack -e 40 -c 1 -i 22 -a 1 -x {4.0 0.0 -1 ------- null}
r -t 0.36473152 -s 3 -d 2 -p ack -e 40 -c 1 -i 22 -a 1 -x {4.0 0.0 2 ------- null}
+ -t 0.36473152 -s 2 -d 0 -p ack -e 40 -c 1 -i 22 -a 1 -x {4.0 0.0 2 ------- null}
- -t 0.36473152 -s 2 -d 0 -p ack -e 40 -c 1 -i 22 -a 1 -x {4.0 0.0 2 ------- null}
h -t 0.36473152 -s 2 -d 0 -p ack -e 40 -c 1 -i 22 -a 1 -x {4.0 0.0 -1 ------- null}
r -t 0.36973472 -s 2 -d 0 -p ack -e 40 -c 1 -i 22 -a 1 -x {4.0 0.0 2 ------- null}
+ -t 0.36973472 -s 0 -d 2 -p tcp -e 1040 -c 1 -i 23 -a 1 -x {0.0 4.0 4 ------- null}
- -t 0.36973472 -s 0 -d 2 -p tcp -e 1040 -c 1 -i 23 -a 1 -x {0.0 4.0 4 ------- null}
h -t 0.36973472 -s 0 -d 2 -p tcp -e 1040 -c 1 -i 23 -a 1 -x {0.0 4.0 -1 ------- null}
r -t 0.37481792 -s 0 -d 2 -p tcp -e 1040 -c 1 -i 23 -a 1 -x {0.0 4.0 4 ------- null}
+ -t 0.37481792 -s 2 -d 3 -p tcp -e 1040 -c 1 -i 23 -a 1 -x {0.0 4.0 4 ------- null}
+ -t 0.38833472 -s 1 -d 2 -p tcp -e 1040 -c 2 -i 24 -a 2 -x {1.0 5.0 3 ---A--- null}
- -t 0.38833472 -s 1 -d 2 -p tcp -e 1040 -c 2 -i 24 -a 2 -x {1.0 5.0 3 ---A--- null}
h -t 0.38833472 -s 1 -d 2 -p tcp -e 1040 -c 2 -i 24 -a 2 -x {1.0 5.0 -1 ---A--- null}
r -t 0.38841792 -s 1 -d 2 -p tcp -e 1040 -c 2 -i 24 -a 2 -x {1.0 5.0 3 ---A--- null}
+ -t 0.38841792 -s 2 -d 3 -p tcp -e 1040 -c 2 -i 24 -a 2 -x {1.0 5.0 3 ---A--- null}
- -t 0.43264512 -s 2 -d 3 -p tcp -e 1040 -c 2 -i 14 -a 2 -x {1.0 5.0 4 ------- null}
h -t 0.43264512 -s 2 -d 3 -p tcp -e 1040 -c 2 -i 14 -a 2 -x {1.0 5.0 -1 ------- null}
r -t 0.43364512 -s 2 -d 3 -p tcp -e 1040 -c 2 -i 13 -a 2 -x {1.0 5.0 3 ------- null}
+ -t 0.43364512 -s 3 -d 5 -p tcp -e 1040 -c 2 -i 13 -a 2 -x {1.0 5.0 3 ------- null}
- -t 0.43364512 -s 3 -d 5 -p tcp -e 1040 -c 2 -i 13 -a 2 -x {1.0 5.0 3 ------- null}
h -t 0.43364512 -s 3 -d 5 -p tcp -e 1040 -c 2 -i 13 -a 2 -x {1.0 5.0 -1 ------- null}
r -t 0.43372832 -s 3 -d 5 -p tcp -e 1040 -c 2 -i 13 -a 2 -x {1.0 5.0 3 ------- null}
+ -t 0.43372832 -s 5 -d 3 -p ack -e 40 -c 2 -i 25 -a 2 -x {5.0 1.0 3 ------- null}
- -t 0.43372832 -s 5 -d 3 -p ack -e 40 -c 2 -i 25 -a 2 -x {5.0 1.0 3 ------- null}
h -t 0.43372832 -s 5 -d 3 -p ack -e 40 -c 2 -i 25 -a 2 -x {5.0 1.0 -1 ------- null}
r -t 0.43373152 -s 5 -d 3 -p ack -e 40 -c 2 -i 25 -a 2 -x {5.0 1.0 3 ------- null}
+ -t 0.43373152 -s 3 -d 2 -p ack -e 40 -c 2 -i 25 -a 2 -x {5.0 1.0 3 ------- null}
- -t 0.43373152 -s 3 -d 2 -p ack -e 40 -c 2 -i 25 -a 2 -x {5.0 1.0 3 ------- null}
h -t 0.43373152 -s 3 -d 2 -p ack -e 40 -c 2 -i 25 -a 2 -x {5.0 1.0 -1 ------- null}
r -t 0.43793152 -s 3 -d 2 -p ack -e 40 -c 2 -i 25 -a 2 -x {5.0 1.0 3 ------- null}
+ -t 0.43793152 -s 2 -d 1 -p ack -e 40 -c 2 -i 25 -a 2 -x {5.0 1.0 3 ------- null}
- -t 0.43793152 -s 2 -d 1 -p ack -e 40 -c 2 -i 25 -a 2 -x {5.0 1.0 3 ------- null}
h -t 0.43793152 -s 2 -d 1 -p ack -e 40 -c 2 -i 25 -a 2 -x {5.0 1.0 -1 ------- null}
r -t 0.43793472 -s 2 -d 1 -p ack -e 40 -c 2 -i 25 -a 2 -x {5.0 1.0 3 ------- null}
+ -t 0.43793472 -s 1 -d 2 -p tcp -e 1040 -c 2 -i 26 -a 2 -x {1.0 5.0 4 ------- null}
- -t 0.43793472 -s 1 -d 2 -p tcp -e 1040 -c 2 -i 26 -a 2 -x {1.0 5.0 4 ------- null}
h -t 0.43793472 -s 1 -d 2 -p tcp -e 1040 -c 2 -i 26 -a 2 -x {1.0 5.0 -1 ------- null}
+ -t 0.43793472 -s 1 -d 2 -p tcp -e 1040 -c 2 -i 27 -a 2 -x {1.0 5.0 5 ------- null}
r -t 0.43801792 -s 1 -d 2 -p tcp -e 1040 -c 2 -i 26 -a 2 -x {1.0 5.0 4 ------- null}
+ -t 0.43801792 -s 2 -d 3 -p tcp -e 1040 -c 2 -i 26 -a 2 -x {1.0 5.0 4 ------- null}
- -t 0.43801792 -s 1 -d 2 -p tcp -e 1040 -c 2 -i 27 -a 2 -x {1.0 5.0 5 ------- null}
h -t 0.43801792 -s 1 -d 2 -p tcp -e 1040 -c 2 -i 27 -a 2 -x {1.0 5.0 -1 ------- null}
r -t 0.43810112 -s 1 -d 2 -p tcp -e 1040 -c 2 -i 27 -a 2 -x {1.0 5.0 5 ------- null}
+ -t 0.43810112 -s 2 -d 3 -p tcp -e 1040 -c 2 -i 27 -a 2 -x {1.0 5.0 5 ------- null}
- -t 0.51584512 -s 2 -d 3 -p tcp -e 1040 -c 2 -i 16 -a 2 -x {1.0 5.0 5 ------- null}
h -t 0.51584512 -s 2 -d 3 -p tcp -e 1040 -c 2 -i 16 -a 2 -x {1.0 5.0 -1 ------- null}
r -t 0.51684512 -s 2 -d 3 -p tcp -e 1040 -c 2 -i 14 -a 2 -x {1.0 5.0 4 ------- null}
+ -t 0.51684512 -s 3 -d 5 -p tcp -e 1040 -c 2 -i 14 -a 2 -x {1.0 5.0 4 ------- null}
- -t 0.51684512 -s 3 -d 5 -p tcp -e 1040 -c 2 -i 14 -a 2 -x {1.0 5.0 4 ------- null}
h -t 0.51684512 -s 3 -d 5 -p tcp -e 1040 -c 2 -i 14 -a 2 -x {1.0 5.0 -1 ------- null}
r -t 0.51692832 -s 3 -d 5 -p tcp -e 1040 -c 2 -i 14 -a 2 -x {1.0 5.0 4 ------- null}
+ -t 0.51692832 -s 5 -d 3 -p ack -e 40 -c 2 -i 28 -a 2 -x {5.0 1.0 4 ------- null}
- -t 0.51692832 -s 5 -d 3 -p ack -e 40 -c 2 -i 28 -a 2 -x {5.0 1.0 4 ------- null}
h -t 0.51692832 -s 5 -d 3 -p ack -e 40 -c 2 -i 28 -a 2 -x {5.0 1.0 -1 ------- null}
r -t 0.51693152 -s 5 -d 3 -p ack -e 40 -c 2 -i 28 -a 2 -x {5.0 1.0 4 ------- null}
+ -t 0.51693152 -s 3 -d 2 -p ack -e 40 -c 2 -i 28 -a 2 -x {5.0 1.0 4 ------- null}
- -t 0.51693152 -s 3 -d 2 -p ack -e 40 -c 2 -i 28 -a 2 -x {5.0 1.0 4 ------- null}
h -t 0.51693152 -s 3 -d 2 -p ack -e 40 -c 2 -i 28 -a 2 -x {5.0 1.0 -1 ------- null}
r -t 0.52113152 -s 3 -d 2 -p ack -e 40 -c 2 -i 28 -a 2 -x {5.0 1.0 4 ------- null}
+ -t 0.52113152 -s 2 -d 1 -p ack -e 40 -c 2 -i 28 -a 2 -x {5.0 1.0 4 ------- null}
- -t 0.52113152 -s 2 -d 1 -p ack -e 40 -c 2 -i 28 -a 2 -x {5.0 1.0 4 ------- null}
h -t 0.52113152 -s 2 -d 1 -p ack -e 40 -c 2 -i 28 -a 2 -x {5.0 1.0 -1 ------- null}
r -t 0.52113472 -s 2 -d 1 -p ack -e 40 -c 2 -i 28 -a 2 -x {5.0 1.0 4 ------- null}
+ -t 0.52113472 -s 1 -d 2 -p tcp -e 1040 -c 2 -i 29 -a 2 -x {1.0 5.0 6 ------- null}
- -t 0.52113472 -s 1 -d 2 -p tcp -e 1040 -c 2 -i 29 -a 2 -x {1.0 5.0 6 ------- null}
h -t 0.52113472 -s 1 -d 2 -p tcp -e 1040 -c 2 -i 29 -a 2 -x {1.0 5.0 -1 ------- null}
r -t 0.52121792 -s 1 -d 2 -p tcp -e 1040 -c 2 -i 29 -a 2 -x {1.0 5.0 6 ------- null}
+ -t 0.52121792 -s 2 -d 3 -p tcp -e 1040 -c 2 -i 29 -a 2 -x {1.0 5.0 6 ------- null}
- -t 0.59904512 -s 2 -d 3 -p tcp -e 1040 -c 2 -i 17 -a 2 -x {1.0 5.0 6 ------- null}
h -t 0.59904512 -s 2 -d 3 -p tcp -e 1040 -c 2 -i 17 -a 2 -x {1.0 5.0 -1 ------- null}
r -t 0.60004512 -s 2 -d 3 -p tcp -e 1040 -c 2 -i 16 -a 2 -x {1.0 5.0 5 ------- null}
+ -t 0.60004512 -s 3 -d 5 -p tcp -e 1040 -c 2 -i 16 -a 2 -x {1.0 5.0 5 ------- null}
- -t 0.60004512 -s 3 -d 5 -p tcp -e 1040 -c 2 -i 16 -a 2 -x {1.0 5.0 5 ------- null}
h -t 0.60004512 -s 3 -d 5 -p tcp -e 1040 -c 2 -i 16 -a 2 -x {1.0 5.0 -1 ------- null}
r -t 0.60012832 -s 3 -d 5 -p tcp -e 1040 -c 2 -i 16 -a 2 -x {1.0 5.0 5 ------- null}
+ -t 0.60012832 -s 5 -d 3 -p ack -e 40 -c 2 -i 30 -a 2 -x {5.0 1.0 5 ------- null}
- -t 0.60012832 -s 5 -d 3 -p ack -e 40 -c 2 -i 30 -a 2 -x {5.0 1.0 5 ------- null}
h -t 0.60012832 -s 5 -d 3 -p ack -e 40 -c 2 -i 30 -a 2 -x {5.0 1.0 -1 ------- null}
r -t 0.60013152 -s 5 -d 3 -p ack -e 40 -c 2 -i 30 -a 2 -x {5.0 1.0 5 ------- null}
+ -t 0.60013152 -s 3 -d 2 -p ack -e 40 -c 2 -i 30 -a 2 -x {5.0 1.0 5 ------- null}
- -t 0.60013152 -s 3 -d 2 -p ack -e 40 -c 2 -i 30 -a 2 -x {5.0 1.0 5 ------- null}
h -t 0.60013152 -s 3 -d 2 -p ack -e 40 -c 2 -i 30 -a 2 -x {5.0 1.0 -1 ------- null}
r -t 0.60433152 -s 3 -d 2 -p ack -e 40 -c 2 -i 30 -a 2 -x {5.0 1.0 5 ------- null}
+ -t 0.60433152 -s 2 -d 1 -p ack -e 40 -c 2 -i 30 -a 2 -x {5.0 1.0 5 ------- null}
- -t 0.60433152 -s 2 -d 1 -p ack -e 40 -c 2 -i 30 -a 2 -x {5.0 1.0 5 ------- null}
h -t 0.60433152 -s 2 -d 1 -p ack -e 40 -c 2 -i 30 -a 2 -x {5.0 1.0 -1 ------- null}
r -t 0.60433472 -s 2 -d 1 -p ack -e 40 -c 2 -i 30 -a 2 -x {5.0 1.0 5 ------- null}
+ -t 0.60433472 -s 1 -d 2 -p tcp -e 1040 -c 2 -i 31 -a 2 -x {1.0 5.0 7 ------- null}
- -t 0.60433472 -s 1 -d 2 -p tcp -e 1040 -c 2 -i 31 -a 2 -x {1.0 5.0 7 ------- null}
h -t 0.60433472 -s 1 -d 2 -p tcp -e 1040 -c 2 -i 31 -a 2 -x {1.0 5.0 -1 ------- null}
r -t 0.60441792 -s 1 -d 2 -p tcp -e 1040 -c 2 -i 31 -a 2 -x {1.0 5.0 7 ------- null}
+ -t 0.60441792 -s 2 -d 3 -p tcp -e 1040 -c 2 -i 31 -a 2 -x {1.0 5.0 7 ------- null}
- -t 0.68224512 -s 2 -d 3 -p tcp -e 1040 -c 1 -i 18 -a 1 -x {0.0 4.0 1 ---A--- null}
h -t 0.68224512 -s 2 -d 3 -p tcp -e 1040 -c 1 -i 18 -a 1 -x {0.0 4.0 -1 ---A--- null}
r -t 0.68324512 -s 2 -d 3 -p tcp -e 1040 -c 2 -i 17 -a 2 -x {1.0 5.0 6 ------- null}
+ -t 0.68324512 -s 3 -d 5 -p tcp -e 1040 -c 2 -i 17 -a 2 -x {1.0 5.0 6 ------- null}
- -t 0.68324512 -s 3 -d 5 -p tcp -e 1040 -c 2 -i 17 -a 2 -x {1.0 5.0 6 ------- null}
h -t 0.68324512 -s 3 -d 5 -p tcp -e 1040 -c 2 -i 17 -a 2 -x {1.0 5.0 -1 ------- null}
r -t 0.68332832 -s 3 -d 5 -p tcp -e 1040 -c 2 -i 17 -a 2 -x {1.0 5.0 6 ------- null}
+ -t 0.68332832 -s 5 -d 3 -p ack -e 40 -c 2 -i 32 -a 2 -x {5.0 1.0 6 ------- null}
- -t 0.68332832 -s 5 -d 3 -p ack -e 40 -c 2 -i 32 -a 2 -x {5.0 1.0 6 ------- null}
h -t 0.68332832 -s 5 -d 3 -p ack -e 40 -c 2 -i 32 -a 2 -x {5.0 1.0 -1 ------- null}
r -t 0.68333152 -s 5 -d 3 -p ack -e 40 -c 2 -i 32 -a 2 -x {5.0 1.0 6 ------- null}
+ -t 0.68333152 -s 3 -d 2 -p ack -e 40 -c 2 -i 32 -a 2 -x {5.0 1.0 6 ------- null}
- -t 0.68333152 -s 3 -d 2 -p ack -e 40 -c 2 -i 32 -a 2 -x {5.0 1.0 6 ------- null}
h -t 0.68333152 -s 3 -d 2 -p ack -e 40 -c 2 -i 32 -a 2 -x {5.0 1.0 -1 ------- null}
r -t 0.68753152 -s 3 -d 2 -p ack -e 40 -c 2 -i 32 -a 2 -x {5.0 1.0 6 ------- null}
+ -t 0.68753152 -s 2 -d 1 -p ack -e 40 -c 2 -i 32 -a 2 -x {5.0 1.0 6 ------- null}
- -t 0.68753152 -s 2 -d 1 -p ack -e 40 -c 2 -i 32 -a 2 -x {5.0 1.0 6 ------- null}
h -t 0.68753152 -s 2 -d 1 -p ack -e 40 -c 2 -i 32 -a 2 -x {5.0 1.0 -1 ------- null}
r -t 0.68753472 -s 2 -d 1 -p ack -e 40 -c 2 -i 32 -a 2 -x {5.0 1.0 6 ------- null}
+ -t 0.68753472 -s 1 -d 2 -p tcp -e 1040 -c 2 -i 33 -a 2 -x {1.0 5.0 8 ------- null}
- -t 0.68753472 -s 1 -d 2 -p tcp -e 1040 -c 2 -i 33 -a 2 -x {1.0 5.0 8 ------- null}
h -t 0.68753472 -s 1 -d 2 -p tcp -e 1040 -c 2 -i 33 -a 2 -x {1.0 5.0 -1 ------- null}
+ -t 0.68753472 -s 1 -d 2 -p tcp -e 1040 -c 2 -i 34 -a 2 -x {1.0 5.0 9 ------- null}
r -t 0.68761792 -s 1 -d 2 -p tcp -e 1040 -c 2 -i 33 -a 2 -x {1.0 5.0 8 ------- null}
+ -t 0.68761792 -s 2 -d 3 -p tcp -e 1040 -c 2 -i 33 -a 2 -x {1.0 5.0 8 ------- null}
- -t 0.68761792 -s 1 -d 2 -p tcp -e 1040 -c 2 -i 34 -a 2 -x {1.0 5.0 9 ------- null}
h -t 0.68761792 -s 1 -d 2 -p tcp -e 1040 -c 2 -i 34 -a 2 -x {1.0 5.0 -1 ------- null}
r -t 0.68770112 -s 1 -d 2 -p tcp -e 1040 -c 2 -i 34 -a 2 -x {1.0 5.0 9 ------- null}
+ -t 0.68770112 -s 2 -d 3 -p tcp -e 1040 -c 2 -i 34 -a 2 -x {1.0 5.0 9 ------- null}
d -t 0.68770112 -s 2 -d 3 -p tcp -e 1040 -c 2 -i 34 -a 2 -x {1.0 5.0 9 ------- null}