+ 0.1 0 3 tcp 40 ------- 0 0.0 5.0 0 0
- 0.1 0 3 tcp 40 ------- 0 0.0 5.0 0 0
+ 0.1 1 3 tcp 40 ------- 0 1.0 5.1 0 1
- 0.1 1 3 tcp 40 ------- 0 1.0 5.1 0 1
+ 0.1 2 3 cbr 1100 ------- 0 2.0 6.0 0 2
- 0.1 2 3 cbr 1100 ------- 0 2.0 6.0 0 2
+ 0.1044 2 3 cbr 1100 ------- 0 2.0 6.0 1 3
- 0.1044 2 3 cbr 1100 ------- 0 2.0 6.0 1 3
+ 0.1088 2 3 cbr 1100 ------- 0 2.0 6.0 2 4
- 0.1088 2 3 cbr 1100 ------- 0 2.0 6.0 2 4
r 0.111001 0 3 tcp 40 ------- 0 0.0 5.0 0 0
+ 0.111001 3 4 tcp 40 ------- 0 0.0 5.0 0 0
- 0.111001 3 4 tcp 40 ------- 0 0.0 5.0 0 0
r 0.111001 1 3 tcp 40 ------- 0 1.0 5.1 0 1
+ 0.111001 3 4 tcp 40 ------- 0 1.0 5.1 0 1
- 0.111001 3 4 tcp 40 ------- 0 1.0 5.1 0 1
r 0.111018 2 3 cbr 1100 ------- 0 2.0 6.0 0 2
+ 0.111018 3 4 cbr 1100 ------- 0 2.0 6.0 0 2
- 0.111018 3 4 cbr 1100 ------- 0 2.0 6.0 0 2
+ 0.1132 2 3 cbr 1100 ------- 0 2.0 6.0 3 5
- 0.1132 2 3 cbr 1100 ------- 0 2.0 6.0 3 5
r 0.115418 2 3 cbr 1100 ------- 0 2.0 6.0 1 3
+ 0.115418 3 4 cbr 1100 ------- 0 2.0 6.0 1 3
- 0.115418 3 4 cbr 1100 ------- 0 2.0 6.0 1 3
+ 0.1176 2 3 cbr 1100 ------- 0 2.0 6.0 4 6
- 0.1176 2 3 cbr 1100 ------- 0 2.0 6.0 4 6
r 0.119818 2 3 cbr 1100 ------- 0 2.0 6.0 2 4
+ 0.119818 3 4 cbr 1100 ------- 0 2.0 6.0 2 4
- 0.119818 3 4 cbr 1100 ------- 0 2.0 6.0 2 4
+ 0.122 2 3 cbr 1100 ------- 0 2.0 6.0 5 7
- 0.122 2 3 cbr 1100 ------- 0 2.0 6.0 5 7
r 0.122001 3 4 tcp 40 ------- 0 0.0 5.0 0 0
+ 0.122001 4 5 tcp 40 ------- 0 0.0 5.0 0 0
- 0.122001 4 5 tcp 40 ------- 0 0.0 5.0 0 0
r 0.122002 3 4 tcp 40 ------- 0 1.0 5.1 0 1
+ 0.122002 4 5 tcp 40 ------- 0 1.0 5.1 0 1
- 0.122002 4 5 tcp 40 ------- 0 1.0 5.1 0 1
r 0.122035 3 4 cbr 1100 ------- 0 2.0 6.0 0 2
+ 0.122035 4 6 cbr 1100 ------- 0 2.0 6.0 0 2
- 0.122035 4 6 cbr 1100 ------- 0 2.0 6.0 0 2
r 0.124218 2 3 cbr 1100 ------- 0 2.0 6.0 3 5
+ 0.124218 3 4 cbr 1100 ------- 0 2.0 6.0 3 5
- 0.124218 3 4 cbr 1100 ------- 0 2.0 6.0 3 5
+ 0.1264 2 3 cbr 1100 ------- 0 2.0 6.0 6 8
- 0.1264 2 3 cbr 1100 ------- 0 2.0 6.0 6 8
r 0.126435 3 4 cbr 1100 ------- 0 2.0 6.0 1 3
+ 0.126435 4 6 cbr 1100 ------- 0 2.0 6.0 1 3
- 0.126435 4 6 cbr 1100 ------- 0 2.0 6.0 1 3
r 0.128618 2 3 cbr 1100 ------- 0 2.0 6.0 4 6
+ 0.128618 3 4 cbr 1100 ------- 0 2.0 6.0 4 6
- 0.128618 3 4 cbr 1100 ------- 0 2.0 6.0 4 6
+ 0.1308 2 3 cbr 1100 ------- 0 2.0 6.0 7 9
- 0.1308 2 3 cbr 1100 ------- 0 2.0 6.0 7 9
r 0.130835 3 4 cbr 1100 ------- 0 2.0 6.0 2 4
+ 0.130835 4 6 cbr 1100 ------- 0 2.0 6.0 2 4
- 0.130835 4 6 cbr 1100 ------- 0 2.0 6.0 2 4
r 0.133002 4 5 tcp 40 ------- 0 0.0 5.0 0 0
+ 0.133002 5 4 ack 40 ------- 0 5.0 0.0 0 10
- 0.133002 5 4 ack 40 ------- 0 5.0 0.0 0 10
r 0.133003 4 5 tcp 40 ------- 0 1.0 5.1 0 1
+ 0.133003 5 4 ack 40 ------- 0 5.1 1.0 0 11
- 0.133003 5 4 ack 40 ------- 0 5.1 1.0 0 11
r 0.133018 2 3 cbr 1100 ------- 0 2.0 6.0 5 7
+ 0.133018 3 4 cbr 1100 ------- 0 2.0 6.0 5 7
- 0.133018 3 4 cbr 1100 ------- 0 2.0 6.0 5 7
r 0.133053 4 6 cbr 1100 ------- 0 2.0 6.0 0 2
+ 0.1352 2 3 cbr 1100 ------- 0 2.0 6.0 8 12
- 0.1352 2 3 cbr 1100 ------- 0 2.0 6.0 8 12
r 0.135235 3 4 cbr 1100 ------- 0 2.0 6.0 3 5
+ 0.135235 4 6 cbr 1100 ------- 0 2.0 6.0 3 5
- 0.135235 4 6 cbr 1100 ------- 0 2.0 6.0 3 5
r 0.137418 2 3 cbr 1100 ------- 0 2.0 6.0 6 8
+ 0.137418 3 4 cbr 1100 ------- 0 2.0 6.0 6 8
- 0.137418 3 4 cbr 1100 ------- 0 2.0 6.0 6 8
r 0.137453 4 6 cbr 1100 ------- 0 2.0 6.0 1 3
+ 0.1396 2 3 cbr 1100 ------- 0 2.0 6.0 9 13
- 0.1396 2 3 cbr 1100 ------- 0 2.0 6.0 9 13
r 0.139635 3 4 cbr 1100 ------- 0 2.0 6.0 4 6
+ 0.139635 4 6 cbr 1100 ------- 0 2.0 6.0 4 6
- 0.139635 4 6 cbr 1100 ------- 0 2.0 6.0 4 6
r 0.141818 2 3 cbr 1100 ------- 0 2.0 6.0 7 9
+ 0.141818 3 4 cbr 1100 ------- 0 2.0 6.0 7 9
- 0.141818 3 4 cbr 1100 ------- 0 2.0 6.0 7 9
r 0.141853 4 6 cbr 1100 ------- 0 2.0 6.0 2 4
+ 0.144 2 3 cbr 1100 ------- 0 2.0 6.0 10 14
- 0.144 2 3 cbr 1100 ------- 0 2.0 6.0 10 14
r 0.144003 5 4 ack 40 ------- 0 5.0 0.0 0 10
+ 0.144003 4 3 ack 40 ------- 0 5.0 0.0 0 10
- 0.144003 4 3 ack 40 ------- 0 5.0 0.0 0 10
r 0.144003 5 4 ack 40 ------- 0 5.1 1.0 0 11
+ 0.144003 4 3 ack 40 ------- 0 5.1 1.0 0 11
- 0.144003 4 3 ack 40 ------- 0 5.1 1.0 0 11
r 0.144035 3 4 cbr 1100 ------- 0 2.0 6.0 5 7
+ 0.144035 4 6 cbr 1100 ------- 0 2.0 6.0 5 7
- 0.144035 4 6 cbr 1100 ------- 0 2.0 6.0 5 7
r 0.146218 2 3 cbr 1100 ------- 0 2.0 6.0 8 12
+ 0.146218 3 4 cbr 1100 ------- 0 2.0 6.0 8 12
- 0.146218 3 4 cbr 1100 ------- 0 2.0 6.0 8 12
r 0.146253 4 6 cbr 1100 ------- 0 2.0 6.0 3 5
+ 0.1484 2 3 cbr 1100 ------- 0 2.0 6.0 11 15
- 0.1484 2 3 cbr 1100 ------- 0 2.0 6.0 11 15
r 0.148435 3 4 cbr 1100 ------- 0 2.0 6.0 6 8
+ 0.148435 4 6 cbr 1100 ------- 0 2.0 6.0 6 8
- 0.148435 4 6 cbr 1100 ------- 0 2.0 6.0 6 8
r 0.150618 2 3 cbr 1100 ------- 0 2.0 6.0 9 13
+ 0.150618 3 4 cbr 1100 ------- 0 2.0 6.0 9 13
- 0.150618 3 4 cbr 1100 ------- 0 2.0 6.0 9 13
r 0.150653 4 6 cbr 1100 ------- 0 2.0 6.0 4 6
+ 0.1528 2 3 cbr 1100 ------- 0 2.0 6.0 12 16
- 0.1528 2 3 cbr 1100 ------- 0 2.0 6.0 12 16
r 0.152835 3 4 cbr 1100 ------- 0 2.0 6.0 7 9
+ 0.152835 4 6 cbr 1100 ------- 0 2.0 6.0 7 9
- 0.152835 4 6 cbr 1100 ------- 0 2.0 6.0 7 9
r 0.155003 4 3 ack 40 ------- 0 5.0 0.0 0 10
+ 0.155003 3 0 ack 40 ------- 0 5.0 0.0 0 10
- 0.155003 3 0 ack 40 ------- 0 5.0 0.0 0 10
r 0.155004 4 3 ack 40 ------- 0 5.1 1.0 0 11
+ 0.155004 3 1 ack 40 ------- 0 5.1 1.0 0 11
- 0.155004 3 1 ack 40 ------- 0 5.1 1.0 0 11
r 0.155018 2 3 cbr 1100 ------- 0 2.0 6.0 10 14
+ 0.155018 3 4 cbr 1100 ------- 0 2.0 6.0 10 14
- 0.155018 3 4 cbr 1100 ------- 0 2.0 6.0 10 14
r 0.155053 4 6 cbr 1100 ------- 0 2.0 6.0 5 7
+ 0.1572 2 3 cbr 1100 ------- 0 2.0 6.0 13 17
- 0.1572 2 3 cbr 1100 ------- 0 2.0 6.0 13 17
r 0.157235 3 4 cbr 1100 ------- 0 2.0 6.0 8 12
+ 0.157235 4 6 cbr 1100 ------- 0 2.0 6.0 8 12
- 0.157235 4 6 cbr 1100 ------- 0 2.0 6.0 8 12
r 0.159418 2 3 cbr 1100 ------- 0 2.0 6.0 11 15
+ 0.159418 3 4 cbr 1100 ------- 0 2.0 6.0 11 15
- 0.159418 3 4 cbr 1100 ------- 0 2.0 6.0 11 15
r 0.159453 4 6 cbr 1100 ------- 0 2.0 6.0 6 8
+ 0.1616 2 3 cbr 1100 ------- 0 2.0 6.0 14 18
- 0.1616 2 3 cbr 1100 ------- 0 2.0 6.0 14 18
r 0.161635 3 4 cbr 1100 ------- 0 2.0 6.0 9 13
+ 0.161635 4 6 cbr 1100 ------- 0 2.0 6.0 9 13
- 0.161635 4 6 cbr 1100 ------- 0 2.0 6.0 9 13
r 0.163818 2 3 cbr 1100 ------- 0 2.0 6.0 12 16
+ 0.163818 3 4 cbr 1100 ------- 0 2.0 6.0 12 16
- 0.163818 3 4 cbr 1100 ------- 0 2.0 6.0 12 16
r 0.163853 4 6 cbr 1100 ------- 0 2.0 6.0 7 9
+ 0.166 2 3 cbr 1100 ------- 0 2.0 6.0 15 19
- 0.166 2 3 cbr 1100 ------- 0 2.0 6.0 15 19
r 0.166004 3 0 ack 40 ------- 0 5.0 0.0 0 10
+ 0.166004 0 3 tcp 2040 ------- 0 0.0 5.0 1 20
- 0.166004 0 3 tcp 2040 ------- 0 0.0 5.0 1 20
+ 0.166004 0 3 tcp 2040 ------- 0 0.0 5.0 2 21
r 0.166004 3 1 ack 40 ------- 0 5.1 1.0 0 11
+ 0.166004 1 3 tcp 2040 ------- 0 1.0 5.1 1 22
- 0.166004 1 3 tcp 2040 ------- 0 1.0 5.1 1 22
+ 0.166004 1 3 tcp 2040 ------- 0 1.0 5.1 2 23
r 0.166035 3 4 cbr 1100 ------- 0 2.0 6.0 10 14
+ 0.166035 4 6 cbr 1100 ------- 0 2.0 6.0 10 14
- 0.166035 4 6 cbr 1100 ------- 0 2.0 6.0 10 14
- 0.166036 0 3 tcp 2040 ------- 0 0.0 5.0 2 21
- 0.166037 1 3 tcp 2040 ------- 0 1.0 5.1 2 23
r 0.168218 2 3 cbr 1100 ------- 0 2.0 6.0 13 17
+ 0.168218 3 4 cbr 1100 ------- 0 2.0 6.0 13 17
- 0.168218 3 4 cbr 1100 ------- 0 2.0 6.0 13 17
r 0.168253 4 6 cbr 1100 ------- 0 2.0 6.0 8 12
+ 0.1704 2 3 cbr 1100 ------- 0 2.0 6.0 16 24
- 0.1704 2 3 cbr 1100 ------- 0 2.0 6.0 16 24
r 0.170435 3 4 cbr 1100 ------- 0 2.0 6.0 11 15
+ 0.170435 4 6 cbr 1100 ------- 0 2.0 6.0 11 15
- 0.170435 4 6 cbr 1100 ------- 0 2.0 6.0 11 15
r 0.172618 2 3 cbr 1100 ------- 0 2.0 6.0 14 18
+ 0.172618 3 4 cbr 1100 ------- 0 2.0 6.0 14 18
- 0.172618 3 4 cbr 1100 ------- 0 2.0 6.0 14 18
r 0.172653 4 6 cbr 1100 ------- 0 2.0 6.0 9 13
+ 0.1748 2 3 cbr 1100 ------- 0 2.0 6.0 17 25
- 0.1748 2 3 cbr 1100 ------- 0 2.0 6.0 17 25
r 0.174835 3 4 cbr 1100 ------- 0 2.0 6.0 12 16
+ 0.174835 4 6 cbr 1100 ------- 0 2.0 6.0 12 16
- 0.174835 4 6 cbr 1100 ------- 0 2.0 6.0 12 16
r 0.177018 2 3 cbr 1100 ------- 0 2.0 6.0 15 19
+ 0.177018 3 4 cbr 1100 ------- 0 2.0 6.0 15 19
- 0.177018 3 4 cbr 1100 ------- 0 2.0 6.0 15 19
r 0.177036 0 3 tcp 2040 ------- 0 0.0 5.0 1 20
+ 0.177036 3 4 tcp 2040 ------- 0 0.0 5.0 1 20
- 0.177036 3 4 tcp 2040 ------- 0 0.0 5.0 1 20
r 0.177037 1 3 tcp 2040 ------- 0 1.0 5.1 1 22
+ 0.177037 3 4 tcp 2040 ------- 0 1.0 5.1 1 22
r 0.177053 4 6 cbr 1100 ------- 0 2.0 6.0 10 14
r 0.177069 0 3 tcp 2040 ------- 0 0.0 5.0 2 21
+ 0.177069 3 4 tcp 2040 ------- 0 0.0 5.0 2 21
- 0.177069 3 4 tcp 2040 ------- 0 1.0 5.1 1 22
r 0.17707 1 3 tcp 2040 ------- 0 1.0 5.1 2 23
+ 0.17707 3 4 tcp 2040 ------- 0 1.0 5.1 2 23
- 0.177102 3 4 tcp 2040 ------- 0 0.0 5.0 2 21
- 0.177134 3 4 tcp 2040 ------- 0 1.0 5.1 2 23
+ 0.1792 2 3 cbr 1100 ------- 0 2.0 6.0 18 26
- 0.1792 2 3 cbr 1100 ------- 0 2.0 6.0 18 26
r 0.179235 3 4 cbr 1100 ------- 0 2.0 6.0 13 17
+ 0.179235 4 6 cbr 1100 ------- 0 2.0 6.0 13 17
- 0.179235 4 6 cbr 1100 ------- 0 2.0 6.0 13 17
r 0.181418 2 3 cbr 1100 ------- 0 2.0 6.0 16 24
+ 0.181418 3 4 cbr 1100 ------- 0 2.0 6.0 16 24
- 0.181418 3 4 cbr 1100 ------- 0 2.0 6.0 16 24
r 0.181453 4 6 cbr 1100 ------- 0 2.0 6.0 11 15
+ 0.1836 2 3 cbr 1100 ------- 0 2.0 6.0 19 27
- 0.1836 2 3 cbr 1100 ------- 0 2.0 6.0 19 27
r 0.183635 3 4 cbr 1100 ------- 0 2.0 6.0 14 18
+ 0.183635 4 6 cbr 1100 ------- 0 2.0 6.0 14 18
- 0.183635 4 6 cbr 1100 ------- 0 2.0 6.0 14 18
r 0.185818 2 3 cbr 1100 ------- 0 2.0 6.0 17 25
+ 0.185818 3 4 cbr 1100 ------- 0 2.0 6.0 17 25
- 0.185818 3 4 cbr 1100 ------- 0 2.0 6.0 17 25
r 0.185853 4 6 cbr 1100 ------- 0 2.0 6.0 12 16
+ 0.188 2 3 cbr 1100 ------- 0 2.0 6.0 20 28
- 0.188 2 3 cbr 1100 ------- 0 2.0 6.0 20 28
r 0.188035 3 4 cbr 1100 ------- 0 2.0 6.0 15 19
+ 0.188035 4 6 cbr 1100 ------- 0 2.0 6.0 15 19
- 0.188035 4 6 cbr 1100 ------- 0 2.0 6.0 15 19
r 0.188069 3 4 tcp 2040 ------- 0 0.0 5.0 1 20
+ 0.188069 4 5 tcp 2040 ------- 0 0.0 5.0 1 20
- 0.188069 4 5 tcp 2040 ------- 0 0.0 5.0 1 20
r 0.188102 3 4 tcp 2040 ------- 0 1.0 5.1 1 22
+ 0.188102 4 5 tcp 2040 ------- 0 1.0 5.1 1 22
- 0.188102 4 5 tcp 2040 ------- 0 1.0 5.1 1 22
r 0.188134 3 4 tcp 2040 ------- 0 0.0 5.0 2 21
+ 0.188134 4 5 tcp 2040 ------- 0 0.0 5.0 2 21
- 0.188134 4 5 tcp 2040 ------- 0 0.0 5.0 2 21
r 0.188167 3 4 tcp 2040 ------- 0 1.0 5.1 2 23
+ 0.188167 4 5 tcp 2040 ------- 0 1.0 5.1 2 23
- 0.188167 4 5 tcp 2040 ------- 0 1.0 5.1 2 23
r 0.190218 2 3 cbr 1100 ------- 0 2.0 6.0 18 26
+ 0.190218 3 4 cbr 1100 ------- 0 2.0 6.0 18 26
- 0.190218 3 4 cbr 1100 ------- 0 2.0 6.0 18 26
r 0.190253 4 6 cbr 1100 ------- 0 2.0 6.0 13 17
+ 0.1924 2 3 cbr 1100 ------- 0 2.0 6.0 21 29
- 0.1924 2 3 cbr 1100 ------- 0 2.0 6.0 21 29
r 0.192435 3 4 cbr 1100 ------- 0 2.0 6.0 16 24
+ 0.192435 4 6 cbr 1100 ------- 0 2.0 6.0 16 24
- 0.192435 4 6 cbr 1100 ------- 0 2.0 6.0 16 24
r 0.194618 2 3 cbr 1100 ------- 0 2.0 6.0 19 27
+ 0.194618 3 4 cbr 1100 ------- 0 2.0 6.0 19 27
- 0.194618 3 4 cbr 1100 ------- 0 2.0 6.0 19 27
r 0.194653 4 6 cbr 1100 ------- 0 2.0 6.0 14 18
+ 0.1968 2 3 cbr 1100 ------- 0 2.0 6.0 22 30
- 0.1968 2 3 cbr 1100 ------- 0 2.0 6.0 22 30
r 0.196835 3 4 cbr 1100 ------- 0 2.0 6.0 17 25
+ 0.196835 4 6 cbr 1100 ------- 0 2.0 6.0 17 25
- 0.196835 4 6 cbr 1100 ------- 0 2.0 6.0 17 25
r 0.199018 2 3 cbr 1100 ------- 0 2.0 6.0 20 28
+ 0.199018 3 4 cbr 1100 ------- 0 2.0 6.0 20 28
- 0.199018 3 4 cbr 1100 ------- 0 2.0 6.0 20 28
r 0.199053 4 6 cbr 1100 ------- 0 2.0 6.0 15 19
r 0.199102 4 5 tcp 2040 ------- 0 0.0 5.0 1 20
+ 0.199102 5 4 ack 40 ------- 0 5.0 0.0 1 31
- 0.199102 5 4 ack 40 ------- 0 5.0 0.0 1 31
r 0.199134 4 5 tcp 2040 ------- 0 1.0 5.1 1 22
+ 0.199134 5 4 ack 40 ------- 0 5.1 1.0 1 32
- 0.199134 5 4 ack 40 ------- 0 5.1 1.0 1 32
r 0.199167 4 5 tcp 2040 ------- 0 0.0 5.0 2 21
+ 0.199167 5 4 ack 40 ------- 0 5.0 0.0 2 33
- 0.199167 5 4 ack 40 ------- 0 5.0 0.0 2 33
r 0.1992 4 5 tcp 2040 ------- 0 1.0 5.1 2 23
+ 0.1992 5 4 ack 40 ------- 0 5.1 1.0 2 34
- 0.1992 5 4 ack 40 ------- 0 5.1 1.0 2 34
+ 0.2012 2 3 cbr 1100 ------- 0 2.0 6.0 23 35
- 0.2012 2 3 cbr 1100 ------- 0 2.0 6.0 23 35
r 0.201235 3 4 cbr 1100 ------- 0 2.0 6.0 18 26
+ 0.201235 4 6 cbr 1100 ------- 0 2.0 6.0 18 26
- 0.201235 4 6 cbr 1100 ------- 0 2.0 6.0 18 26
r 0.203418 2 3 cbr 1100 ------- 0 2.0 6.0 21 29
+ 0.203418 3 4 cbr 1100 ------- 0 2.0 6.0 21 29
- 0.203418 3 4 cbr 1100 ------- 0 2.0 6.0 21 29
r 0.203453 4 6 cbr 1100 ------- 0 2.0 6.0 16 24
+ 0.2056 2 3 cbr 1100 ------- 0 2.0 6.0 24 36
- 0.2056 2 3 cbr 1100 ------- 0 2.0 6.0 24 36
r 0.205635 3 4 cbr 1100 ------- 0 2.0 6.0 19 27
+ 0.205635 4 6 cbr 1100 ------- 0 2.0 6.0 19 27
- 0.205635 4 6 cbr 1100 ------- 0 2.0 6.0 19 27
r 0.207818 2 3 cbr 1100 ------- 0 2.0 6.0 22 30
+ 0.207818 3 4 cbr 1100 ------- 0 2.0 6.0 22 30
- 0.207818 3 4 cbr 1100 ------- 0 2.0 6.0 22 30
r 0.207853 4 6 cbr 1100 ------- 0 2.0 6.0 17 25
+ 0.21 2 3 cbr 1100 ------- 0 2.0 6.0 25 37
- 0.21 2 3 cbr 1100 ------- 0 2.0 6.0 25 37
r 0.210035 3 4 cbr 1100 ------- 0 2.0 6.0 20 28
+ 0.210035 4 6 cbr 1100 ------- 0 2.0 6.0 20 28
- 0.210035 4 6 cbr 1100 ------- 0 2.0 6.0 20 28
r 0.210102 5 4 ack 40 ------- 0 5.0 0.0 1 31
+ 0.210102 4 3 ack 40 ------- 0 5.0 0.0 1 31
- 0.210102 4 3 ack 40 ------- 0 5.0 0.0 1 31
r 0.210135 5 4 ack 40 ------- 0 5.1 1.0 1 32
+ 0.210135 4 3 ack 40 ------- 0 5.1 1.0 1 32
- 0.210135 4 3 ack 40 ------- 0 5.1 1.0 1 32
r 0.210168 5 4 ack 40 ------- 0 5.0 0.0 2 33
+ 0.210168 4 3 ack 40 ------- 0 5.0 0.0 2 33
- 0.210168 4 3 ack 40 ------- 0 5.0 0.0 2 33
r 0.2102 5 4 ack 40 ------- 0 5.1 1.0 2 34
+ 0.2102 4 3 ack 40 ------- 0 5.1 1.0 2 34
- 0.2102 4 3 ack 40 ------- 0 5.1 1.0 2 34
r 0.212218 2 3 cbr 1100 ------- 0 2.0 6.0 23 35
+ 0.212218 3 4 cbr 1100 ------- 0 2.0 6.0 23 35
- 0.212218 3 4 cbr 1100 ------- 0 2.0 6.0 23 35
r 0.212253 4 6 cbr 1100 ------- 0 2.0 6.0 18 26
+ 0.2144 2 3 cbr 1100 ------- 0 2.0 6.0 26 38
- 0.2144 2 3 cbr 1100 ------- 0 2.0 6.0 26 38
r 0.214435 3 4 cbr 1100 ------- 0 2.0 6.0 21 29
+ 0.214435 4 6 cbr 1100 ------- 0 2.0 6.0 21 29
- 0.214435 4 6 cbr 1100 ------- 0 2.0 6.0 21 29
r 0.216618 2 3 cbr 1100 ------- 0 2.0 6.0 24 36
+ 0.216618 3 4 cbr 1100 ------- 0 2.0 6.0 24 36
- 0.216618 3 4 cbr 1100 ------- 0 2.0 6.0 24 36
r 0.216653 4 6 cbr 1100 ------- 0 2.0 6.0 19 27
+ 0.2188 2 3 cbr 1100 ------- 0 2.0 6.0 27 39
- 0.2188 2 3 cbr 1100 ------- 0 2.0 6.0 27 39
r 0.218835 3 4 cbr 1100 ------- 0 2.0 6.0 22 30
+ 0.218835 4 6 cbr 1100 ------- 0 2.0 6.0 22 30
- 0.218835 4 6 cbr 1100 ------- 0 2.0 6.0 22 30
r 0.221018 2 3 cbr 1100 ------- 0 2.0 6.0 25 37
+ 0.221018 3 4 cbr 1100 ------- 0 2.0 6.0 25 37
- 0.221018 3 4 cbr 1100 ------- 0 2.0 6.0 25 37
r 0.221053 4 6 cbr 1100 ------- 0 2.0 6.0 20 28
r 0.221103 4 3 ack 40 ------- 0 5.0 0.0 1 31
+ 0.221103 3 0 ack 40 ------- 0 5.0 0.0 1 31
- 0.221103 3 0 ack 40 ------- 0 5.0 0.0 1 31
r 0.221136 4 3 ack 40 ------- 0 5.1 1.0 1 32
+ 0.221136 3 1 ack 40 ------- 0 5.1 1.0 1 32
- 0.221136 3 1 ack 40 ------- 0 5.1 1.0 1 32
r 0.221168 4 3 ack 40 ------- 0 5.0 0.0 2 33
+ 0.221168 3 0 ack 40 ------- 0 5.0 0.0 2 33
- 0.221168 3 0 ack 40 ------- 0 5.0 0.0 2 33
r 0.221201 4 3 ack 40 ------- 0 5.1 1.0 2 34
+ 0.221201 3 1 ack 40 ------- 0 5.1 1.0 2 34
- 0.221201 3 1 ack 40 ------- 0 5.1 1.0 2 34
+ 0.2232 2 3 cbr 1100 ------- 0 2.0 6.0 28 40
- 0.2232 2 3 cbr 1100 ------- 0 2.0 6.0 28 40
r 0.223235 3 4 cbr 1100 ------- 0 2.0 6.0 23 35
+ 0.223235 4 6 cbr 1100 ------- 0 2.0 6.0 23 35
- 0.223235 4 6 cbr 1100 ------- 0 2.0 6.0 23 35
r 0.225418 2 3 cbr 1100 ------- 0 2.0 6.0 26 38
+ 0.225418 3 4 cbr 1100 ------- 0 2.0 6.0 26 38
- 0.225418 3 4 cbr 1100 ------- 0 2.0 6.0 26 38
r 0.225453 4 6 cbr 1100 ------- 0 2.0 6.0 21 29
+ 0.2276 2 3 cbr 1100 ------- 0 2.0 6.0 29 41
- 0.2276 2 3 cbr 1100 ------- 0 2.0 6.0 29 41
r 0.227635 3 4 cbr 1100 ------- 0 2.0 6.0 24 36
+ 0.227635 4 6 cbr 1100 ------- 0 2.0 6.0 24 36
- 0.227635 4 6 cbr 1100 ------- 0 2.0 6.0 24 36
r 0.229818 2 3 cbr 1100 ------- 0 2.0 6.0 27 39
+ 0.229818 3 4 cbr 1100 ------- 0 2.0 6.0 27 39
- 0.229818 3 4 cbr 1100 ------- 0 2.0 6.0 27 39
r 0.229853 4 6 cbr 1100 ------- 0 2.0 6.0 22 30
+ 0.232 2 3 cbr 1100 ------- 0 2.0 6.0 30 42
- 0.232 2 3 cbr 1100 ------- 0 2.0 6.0 30 42
r 0.232035 3 4 cbr 1100 ------- 0 2.0 6.0 25 37
+ 0.232035 4 6 cbr 1100 ------- 0 2.0 6.0 25 37
- 0.232035 4 6 cbr 1100 ------- 0 2.0 6.0 25 37
r 0.232104 3 0 ack 40 ------- 0 5.0 0.0 1 31
+ 0.232104 0 3 tcp 2040 ------- 0 0.0 5.0 3 43
- 0.232104 0 3 tcp 2040 ------- 0 0.0 5.0 3 43
+ 0.232104 0 3 tcp 2040 ------- 0 0.0 5.0 4 44
r 0.232136 3 1 ack 40 ------- 0 5.1 1.0 1 32
+ 0.232136 1 3 tcp 2040 ------- 0 1.0 5.1 3 45
- 0.232136 1 3 tcp 2040 ------- 0 1.0 5.1 3 45
+ 0.232136 1 3 tcp 2040 ------- 0 1.0 5.1 4 46
- 0.232136 0 3 tcp 2040 ------- 0 0.0 5.0 4 44
r 0.232169 3 0 ack 40 ------- 0 5.0 0.0 2 33
+ 0.232169 0 3 tcp 2040 ------- 0 0.0 5.0 5 47
+ 0.232169 0 3 tcp 2040 ------- 0 0.0 5.0 6 48
- 0.232169 1 3 tcp 2040 ------- 0 1.0 5.1 4 46
- 0.232169 0 3 tcp 2040 ------- 0 0.0 5.0 5 47
r 0.232202 3 1 ack 40 ------- 0 5.1 1.0 2 34
+ 0.232202 1 3 tcp 2040 ------- 0 1.0 5.1 5 49
+ 0.232202 1 3 tcp 2040 ------- 0 1.0 5.1 6 50
- 0.232202 1 3 tcp 2040 ------- 0 1.0 5.1 5 49
- 0.232202 0 3 tcp 2040 ------- 0 0.0 5.0 6 48
- 0.232234 1 3 tcp 2040 ------- 0 1.0 5.1 6 50
r 0.234218 2 3 cbr 1100 ------- 0 2.0 6.0 28 40
+ 0.234218 3 4 cbr 1100 ------- 0 2.0 6.0 28 40
- 0.234218 3 4 cbr 1100 ------- 0 2.0 6.0 28 40
r 0.234253 4 6 cbr 1100 ------- 0 2.0 6.0 23 35
+ 0.2364 2 3 cbr 1100 ------- 0 2.0 6.0 31 51
- 0.2364 2 3 cbr 1100 ------- 0 2.0 6.0 31 51
r 0.236435 3 4 cbr 1100 ------- 0 2.0 6.0 26 38
+ 0.236435 4 6 cbr 1100 ------- 0 2.0 6.0 26 38
- 0.236435 4 6 cbr 1100 ------- 0 2.0 6.0 26 38
r 0.238618 2 3 cbr 1100 ------- 0 2.0 6.0 29 41
+ 0.238618 3 4 cbr 1100 ------- 0 2.0 6.0 29 41
- 0.238618 3 4 cbr 1100 ------- 0 2.0 6.0 29 41
r 0.238653 4 6 cbr 1100 ------- 0 2.0 6.0 24 36
+ 0.2408 2 3 cbr 1100 ------- 0 2.0 6.0 32 52
- 0.2408 2 3 cbr 1100 ------- 0 2.0 6.0 32 52
r 0.240835 3 4 cbr 1100 ------- 0 2.0 6.0 27 39
+ 0.240835 4 6 cbr 1100 ------- 0 2.0 6.0 27 39
- 0.240835 4 6 cbr 1100 ------- 0 2.0 6.0 27 39
r 0.243018 2 3 cbr 1100 ------- 0 2.0 6.0 30 42
+ 0.243018 3 4 cbr 1100 ------- 0 2.0 6.0 30 42
- 0.243018 3 4 cbr 1100 ------- 0 2.0 6.0 30 42
r 0.243053 4 6 cbr 1100 ------- 0 2.0 6.0 25 37
r 0.243136 0 3 tcp 2040 ------- 0 0.0 5.0 3 43
+ 0.243136 3 4 tcp 2040 ------- 0 0.0 5.0 3 43
- 0.243136 3 4 tcp 2040 ------- 0 0.0 5.0 3 43
r 0.243169 1 3 tcp 2040 ------- 0 1.0 5.1 3 45
+ 0.243169 3 4 tcp 2040 ------- 0 1.0 5.1 3 45
r 0.243169 0 3 tcp 2040 ------- 0 0.0 5.0 4 44
+ 0.243169 3 4 tcp 2040 ------- 0 0.0 5.0 4 44
- 0.243169 3 4 tcp 2040 ------- 0 1.0 5.1 3 45
r 0.243202 1 3 tcp 2040 ------- 0 1.0 5.1 4 46
+ 0.243202 3 4 tcp 2040 ------- 0 1.0 5.1 4 46
r 0.243202 0 3 tcp 2040 ------- 0 0.0 5.0 5 47
+ 0.243202 3 4 tcp 2040 ------- 0 0.0 5.0 5 47
- 0.243202 3 4 tcp 2040 ------- 0 0.0 5.0 4 44
r 0.243234 1 3 tcp 2040 ------- 0 1.0 5.1 5 49
+ 0.243234 3 4 tcp 2040 ------- 0 1.0 5.1 5 49
r 0.243234 0 3 tcp 2040 ------- 0 0.0 5.0 6 48
+ 0.243234 3 4 tcp 2040 ------- 0 0.0 5.0 6 48
- 0.243234 3 4 tcp 2040 ------- 0 1.0 5.1 4 46
r 0.243267 1 3 tcp 2040 ------- 0 1.0 5.1 6 50
+ 0.243267 3 4 tcp 2040 ------- 0 1.0 5.1 6 50
- 0.243267 3 4 tcp 2040 ------- 0 0.0 5.0 5 47
- 0.2433 3 4 tcp 2040 ------- 0 1.0 5.1 5 49
- 0.243332 3 4 tcp 2040 ------- 0 0.0 5.0 6 48
- 0.243365 3 4 tcp 2040 ------- 0 1.0 5.1 6 50
+ 0.2452 2 3 cbr 1100 ------- 0 2.0 6.0 33 53
- 0.2452 2 3 cbr 1100 ------- 0 2.0 6.0 33 53
r 0.245235 3 4 cbr 1100 ------- 0 2.0 6.0 28 40
+ 0.245235 4 6 cbr 1100 ------- 0 2.0 6.0 28 40
- 0.245235 4 6 cbr 1100 ------- 0 2.0 6.0 28 40
r 0.247418 2 3 cbr 1100 ------- 0 2.0 6.0 31 51
+ 0.247418 3 4 cbr 1100 ------- 0 2.0 6.0 31 51
- 0.247418 3 4 cbr 1100 ------- 0 2.0 6.0 31 51
r 0.247453 4 6 cbr 1100 ------- 0 2.0 6.0 26 38
+ 0.2496 2 3 cbr 1100 ------- 0 2.0 6.0 34 54
- 0.2496 2 3 cbr 1100 ------- 0 2.0 6.0 34 54
r 0.249635 3 4 cbr 1100 ------- 0 2.0 6.0 29 41
+ 0.249635 4 6 cbr 1100 ------- 0 2.0 6.0 29 41
- 0.249635 4 6 cbr 1100 ------- 0 2.0 6.0 29 41
r 0.251818 2 3 cbr 1100 ------- 0 2.0 6.0 32 52
+ 0.251818 3 4 cbr 1100 ------- 0 2.0 6.0 32 52
- 0.251818 3 4 cbr 1100 ------- 0 2.0 6.0 32 52
r 0.251853 4 6 cbr 1100 ------- 0 2.0 6.0 27 39
+ 0.254 2 3 cbr 1100 ------- 0 2.0 6.0 35 55
- 0.254 2 3 cbr 1100 ------- 0 2.0 6.0 35 55
r 0.254035 3 4 cbr 1100 ------- 0 2.0 6.0 30 42
+ 0.254035 4 6 cbr 1100 ------- 0 2.0 6.0 30 42
- 0.254035 4 6 cbr 1100 ------- 0 2.0 6.0 30 42
r 0.254169 3 4 tcp 2040 ------- 0 0.0 5.0 3 43
+ 0.254169 4 5 tcp 2040 ------- 0 0.0 5.0 3 43
- 0.254169 4 5 tcp 2040 ------- 0 0.0 5.0 3 43
r 0.254202 3 4 tcp 2040 ------- 0 1.0 5.1 3 45
+ 0.254202 4 5 tcp 2040 ------- 0 1.0 5.1 3 45
- 0.254202 4 5 tcp 2040 ------- 0 1.0 5.1 3 45
r 0.254234 3 4 tcp 2040 ------- 0 0.0 5.0 4 44
+ 0.254234 4 5 tcp 2040 ------- 0 0.0 5.0 4 44
- 0.254234 4 5 tcp 2040 ------- 0 0.0 5.0 4 44
r 0.254267 3 4 tcp 2040 ------- 0 1.0 5.1 4 46
+ 0.254267 4 5 tcp 2040 ------- 0 1.0 5.1 4 46
- 0.254267 4 5 tcp 2040 ------- 0 1.0 5.1 4 46
r 0.2543 3 4 tcp 2040 ------- 0 0.0 5.0 5 47
+ 0.2543 4 5 tcp 2040 ------- 0 0.0 5.0 5 47
- 0.2543 4 5 tcp 2040 ------- 0 0.0 5.0 5 47
r 0.254332 3 4 tcp 2040 ------- 0 1.0 5.1 5 49
+ 0.254332 4 5 tcp 2040 ------- 0 1.0 5.1 5 49
- 0.254332 4 5 tcp 2040 ------- 0 1.0 5.1 5 49
r 0.254365 3 4 tcp 2040 ------- 0 0.0 5.0 6 48
+ 0.254365 4 5 tcp 2040 ------- 0 0.0 5.0 6 48
- 0.254365 4 5 tcp 2040 ------- 0 0.0 5.0 6 48
r 0.254397 3 4 tcp 2040 ------- 0 1.0 5.1 6 50
+ 0.254397 4 5 tcp 2040 ------- 0 1.0 5.1 6 50
- 0.254397 4 5 tcp 2040 ------- 0 1.0 5.1 6 50
r 0.256218 2 3 cbr 1100 ------- 0 2.0 6.0 33 53
+ 0.256218 3 4 cbr 1100 ------- 0 2.0 6.0 33 53
- 0.256218 3 4 cbr 1100 ------- 0 2.0 6.0 33 53
r 0.256253 4 6 cbr 1100 ------- 0 2.0 6.0 28 40
+ 0.2584 2 3 cbr 1100 ------- 0 2.0 6.0 36 56
- 0.2584 2 3 cbr 1100 ------- 0 2.0 6.0 36 56
r 0.258435 3 4 cbr 1100 ------- 0 2.0 6.0 31 51
+ 0.258435 4 6 cbr 1100 ------- 0 2.0 6.0 31 51
- 0.258435 4 6 cbr 1100 ------- 0 2.0 6.0 31 51
r 0.260618 2 3 cbr 1100 ------- 0 2.0 6.0 34 54
+ 0.260618 3 4 cbr 1100 ------- 0 2.0 6.0 34 54
- 0.260618 3 4 cbr 1100 ------- 0 2.0 6.0 34 54
r 0.260653 4 6 cbr 1100 ------- 0 2.0 6.0 29 41
+ 0.2628 2 3 cbr 1100 ------- 0 2.0 6.0 37 57
- 0.2628 2 3 cbr 1100 ------- 0 2.0 6.0 37 57
r 0.262835 3 4 cbr 1100 ------- 0 2.0 6.0 32 52
+ 0.262835 4 6 cbr 1100 ------- 0 2.0 6.0 32 52
- 0.262835 4 6 cbr 1100 ------- 0 2.0 6.0 32 52
r 0.265018 2 3 cbr 1100 ------- 0 2.0 6.0 35 55
+ 0.265018 3 4 cbr 1100 ------- 0 2.0 6.0 35 55
- 0.265018 3 4 cbr 1100 ------- 0 2.0 6.0 35 55
r 0.265053 4 6 cbr 1100 ------- 0 2.0 6.0 30 42
r 0.265202 4 5 tcp 2040 ------- 0 0.0 5.0 3 43
+ 0.265202 5 4 ack 40 ------- 0 5.0 0.0 3 58
- 0.265202 5 4 ack 40 ------- 0 5.0 0.0 3 58
r 0.265234 4 5 tcp 2040 ------- 0 1.0 5.1 3 45
+ 0.265234 5 4 ack 40 ------- 0 5.1 1.0 3 59
- 0.265234 5 4 ack 40 ------- 0 5.1 1.0 3 59
r 0.265267 4 5 tcp 2040 ------- 0 0.0 5.0 4 44
+ 0.265267 5 4 ack 40 ------- 0 5.0 0.0 4 60
- 0.265267 5 4 ack 40 ------- 0 5.0 0.0 4 60
r 0.2653 4 5 tcp 2040 ------- 0 1.0 5.1 4 46
+ 0.2653 5 4 ack 40 ------- 0 5.1 1.0 4 61
- 0.2653 5 4 ack 40 ------- 0 5.1 1.0 4 61
r 0.265332 4 5 tcp 2040 ------- 0 0.0 5.0 5 47
+ 0.265332 5 4 ack 40 ------- 0 5.0 0.0 5 62
- 0.265332 5 4 ack 40 ------- 0 5.0 0.0 5 62
r 0.265365 4 5 tcp 2040 ------- 0 1.0 5.1 5 49
+ 0.265365 5 4 ack 40 ------- 0 5.1 1.0 5 63
- 0.265365 5 4 ack 40 ------- 0 5.1 1.0 5 63
r 0.265397 4 5 tcp 2040 ------- 0 0.0 5.0 6 48
+ 0.265397 5 4 ack 40 ------- 0 5.0 0.0 6 64
- 0.265397 5 4 ack 40 ------- 0 5.0 0.0 6 64
r 0.26543 4 5 tcp 2040 ------- 0 1.0 5.1 6 50
+ 0.26543 5 4 ack 40 ------- 0 5.1 1.0 6 65
- 0.26543 5 4 ack 40 ------- 0 5.1 1.0 6 65
+ 0.2672 2 3 cbr 1100 ------- 0 2.0 6.0 38 66
- 0.2672 2 3 cbr 1100 ------- 0 2.0 6.0 38 66
r 0.267235 3 4 cbr 1100 ------- 0 2.0 6.0 33 53
+ 0.267235 4 6 cbr 1100 ------- 0 2.0 6.0 33 53
- 0.267235 4 6 cbr 1100 ------- 0 2.0 6.0 33 53
r 0.269418 2 3 cbr 1100 ------- 0 2.0 6.0 36 56
+ 0.269418 3 4 cbr 1100 ------- 0 2.0 6.0 36 56
- 0.269418 3 4 cbr 1100 ------- 0 2.0 6.0 36 56
r 0.269453 4 6 cbr 1100 ------- 0 2.0 6.0 31 51
+ 0.2716 2 3 cbr 1100 ------- 0 2.0 6.0 39 67
- 0.2716 2 3 cbr 1100 ------- 0 2.0 6.0 39 67
r 0.271635 3 4 cbr 1100 ------- 0 2.0 6.0 34 54
+ 0.271635 4 6 cbr 1100 ------- 0 2.0 6.0 34 54
- 0.271635 4 6 cbr 1100 ------- 0 2.0 6.0 34 54
r 0.273818 2 3 cbr 1100 ------- 0 2.0 6.0 37 57
+ 0.273818 3 4 cbr 1100 ------- 0 2.0 6.0 37 57
- 0.273818 3 4 cbr 1100 ------- 0 2.0 6.0 37 57
r 0.273853 4 6 cbr 1100 ------- 0 2.0 6.0 32 52
+ 0.276 2 3 cbr 1100 ------- 0 2.0 6.0 40 68
- 0.276 2 3 cbr 1100 ------- 0 2.0 6.0 40 68
r 0.276035 3 4 cbr 1100 ------- 0 2.0 6.0 35 55
+ 0.276035 4 6 cbr 1100 ------- 0 2.0 6.0 35 55
- 0.276035 4 6 cbr 1100 ------- 0 2.0 6.0 35 55
r 0.276202 5 4 ack 40 ------- 0 5.0 0.0 3 58
+ 0.276202 4 3 ack 40 ------- 0 5.0 0.0 3 58
- 0.276202 4 3 ack 40 ------- 0 5.0 0.0 3 58
r 0.276235 5 4 ack 40 ------- 0 5.1 1.0 3 59
+ 0.276235 4 3 ack 40 ------- 0 5.1 1.0 3 59
- 0.276235 4 3 ack 40 ------- 0 5.1 1.0 3 59
r 0.276268 5 4 ack 40 ------- 0 5.0 0.0 4 60
+ 0.276268 4 3 ack 40 ------- 0 5.0 0.0 4 60
- 0.276268 4 3 ack 40 ------- 0 5.0 0.0 4 60
r 0.2763 5 4 ack 40 ------- 0 5.1 1.0 4 61
+ 0.2763 4 3 ack 40 ------- 0 5.1 1.0 4 61
- 0.2763 4 3 ack 40 ------- 0 5.1 1.0 4 61
r 0.276333 5 4 ack 40 ------- 0 5.0 0.0 5 62
+ 0.276333 4 3 ack 40 ------- 0 5.0 0.0 5 62
- 0.276333 4 3 ack 40 ------- 0 5.0 0.0 5 62
r 0.276365 5 4 ack 40 ------- 0 5.1 1.0 5 63
+ 0.276365 4 3 ack 40 ------- 0 5.1 1.0 5 63
- 0.276365 4 3 ack 40 ------- 0 5.1 1.0 5 63
r 0.276398 5 4 ack 40 ------- 0 5.0 0.0 6 64
+ 0.276398 4 3 ack 40 ------- 0 5.0 0.0 6 64
- 0.276398 4 3 ack 40 ------- 0 5.0 0.0 6 64
r 0.276431 5 4 ack 40 ------- 0 5.1 1.0 6 65
+ 0.276431 4 3 ack 40 ------- 0 5.1 1.0 6 65
- 0.276431 4 3 ack 40 ------- 0 5.1 1.0 6 65
r 0.278218 2 3 cbr 1100 ------- 0 2.0 6.0 38 66
+ 0.278218 3 4 cbr 1100 ------- 0 2.0 6.0 38 66
- 0.278218 3 4 cbr 1100 ------- 0 2.0 6.0 38 66
r 0.278253 4 6 cbr 1100 ------- 0 2.0 6.0 33 53
+ 0.2804 2 3 cbr 1100 ------- 0 2.0 6.0 41 69
- 0.2804 2 3 cbr 1100 ------- 0 2.0 6.0 41 69
r 0.280435 3 4 cbr 1100 ------- 0 2.0 6.0 36 56
+ 0.280435 4 6 cbr 1100 ------- 0 2.0 6.0 36 56
- 0.280435 4 6 cbr 1100 ------- 0 2.0 6.0 36 56
r 0.282618 2 3 cbr 1100 ------- 0 2.0 6.0 39 67
+ 0.282618 3 4 cbr 1100 ------- 0 2.0 6.0 39 67
- 0.282618 3 4 cbr 1100 ------- 0 2.0 6.0 39 67
r 0.282653 4 6 cbr 1100 ------- 0 2.0 6.0 34 54
+ 0.2848 2 3 cbr 1100 ------- 0 2.0 6.0 42 70
- 0.2848 2 3 cbr 1100 ------- 0 2.0 6.0 42 70
r 0.284835 3 4 cbr 1100 ------- 0 2.0 6.0 37 57
+ 0.284835 4 6 cbr 1100 ------- 0 2.0 6.0 37 57
- 0.284835 4 6 cbr 1100 ------- 0 2.0 6.0 37 57
r 0.287018 2 3 cbr 1100 ------- 0 2.0 6.0 40 68
+ 0.287018 3 4 cbr 1100 ------- 0 2.0 6.0 40 68
- 0.287018 3 4 cbr 1100 ------- 0 2.0 6.0 40 68
r 0.287053 4 6 cbr 1100 ------- 0 2.0 6.0 35 55
r 0.287203 4 3 ack 40 ------- 0 5.0 0.0 3 58
+ 0.287203 3 0 ack 40 ------- 0 5.0 0.0 3 58
- 0.287203 3 0 ack 40 ------- 0 5.0 0.0 3 58
r 0.287236 4 3 ack 40 ------- 0 5.1 1.0 3 59
+ 0.287236 3 1 ack 40 ------- 0 5.1 1.0 3 59
- 0.287236 3 1 ack 40 ------- 0 5.1 1.0 3 59
r 0.287268 4 3 ack 40 ------- 0 5.0 0.0 4 60
+ 0.287268 3 0 ack 40 ------- 0 5.0 0.0 4 60
- 0.287268 3 0 ack 40 ------- 0 5.0 0.0 4 60
r 0.287301 4 3 ack 40 ------- 0 5.1 1.0 4 61
+ 0.287301 3 1 ack 40 ------- 0 5.1 1.0 4 61
- 0.287301 3 1 ack 40 ------- 0 5.1 1.0 4 61
r 0.287333 4 3 ack 40 ------- 0 5.0 0.0 5 62
+ 0.287333 3 0 ack 40 ------- 0 5.0 0.0 5 62
- 0.287333 3 0 ack 40 ------- 0 5.0 0.0 5 62
r 0.287366 4 3 ack 40 ------- 0 5.1 1.0 5 63
+ 0.287366 3 1 ack 40 ------- 0 5.1 1.0 5 63
- 0.287366 3 1 ack 40 ------- 0 5.1 1.0 5 63
r 0.287399 4 3 ack 40 ------- 0 5.0 0.0 6 64
+ 0.287399 3 0 ack 40 ------- 0 5.0 0.0 6 64
- 0.287399 3 0 ack 40 ------- 0 5.0 0.0 6 64
r 0.287431 4 3 ack 40 ------- 0 5.1 1.0 6 65
+ 0.287431 3 1 ack 40 ------- 0 5.1 1.0 6 65
- 0.287431 3 1 ack 40 ------- 0 5.1 1.0 6 65
+ 0.2892 2 3 cbr 1100 ------- 0 2.0 6.0 43 71
- 0.2892 2 3 cbr 1100 ------- 0 2.0 6.0 43 71
r 0.289235 3 4 cbr 1100 ------- 0 2.0 6.0 38 66
+ 0.289235 4 6 cbr 1100 ------- 0 2.0 6.0 38 66
- 0.289235 4 6 cbr 1100 ------- 0 2.0 6.0 38 66
r 0.291418 2 3 cbr 1100 ------- 0 2.0 6.0 41 69
+ 0.291418 3 4 cbr 1100 ------- 0 2.0 6.0 41 69
- 0.291418 3 4 cbr 1100 ------- 0 2.0 6.0 41 69
r 0.291453 4 6 cbr 1100 ------- 0 2.0 6.0 36 56
+ 0.2936 2 3 cbr 1100 ------- 0 2.0 6.0 44 72
- 0.2936 2 3 cbr 1100 ------- 0 2.0 6.0 44 72
r 0.293635 3 4 cbr 1100 ------- 0 2.0 6.0 39 67
+ 0.293635 4 6 cbr 1100 ------- 0 2.0 6.0 39 67
- 0.293635 4 6 cbr 1100 ------- 0 2.0 6.0 39 67
r 0.295818 2 3 cbr 1100 ------- 0 2.0 6.0 42 70
+ 0.295818 3 4 cbr 1100 ------- 0 2.0 6.0 42 70
- 0.295818 3 4 cbr 1100 ------- 0 2.0 6.0 42 70
r 0.295853 4 6 cbr 1100 ------- 0 2.0 6.0 37 57
+ 0.298 2 3 cbr 1100 ------- 0 2.0 6.0 45 73
- 0.298 2 3 cbr 1100 ------- 0 2.0 6.0 45 73
r 0.298035 3 4 cbr 1100 ------- 0 2.0 6.0 40 68
+ 0.298035 4 6 cbr 1100 ------- 0 2.0 6.0 40 68
- 0.298035 4 6 cbr 1100 ------- 0 2.0 6.0 40 68
r 0.298204 3 0 ack 40 ------- 0 5.0 0.0 3 58
+ 0.298204 0 3 tcp 2040 ------- 0 0.0 5.0 7 74
- 0.298204 0 3 tcp 2040 ------- 0 0.0 5.0 7 74
+ 0.298204 0 3 tcp 2040 ------- 0 0.0 5.0 8 75
r 0.298236 3 1 ack 40 ------- 0 5.1 1.0 3 59
+ 0.298236 1 3 tcp 2040 ------- 0 1.0 5.1 7 76
- 0.298236 1 3 tcp 2040 ------- 0 1.0 5.1 7 76
+ 0.298236 1 3 tcp 2040 ------- 0 1.0 5.1 8 77
- 0.298236 0 3 tcp 2040 ------- 0 0.0 5.0 8 75
- 0.298269 1 3 tcp 2040 ------- 0 1.0 5.1 8 77
r 0.298269 3 0 ack 40 ------- 0 5.0 0.0 4 60
+ 0.298269 0 3 tcp 2040 ------- 0 0.0 5.0 9 78
- 0.298269 0 3 tcp 2040 ------- 0 0.0 5.0 9 78
+ 0.298269 0 3 tcp 2040 ------- 0 0.0 5.0 10 79
r 0.298301 3 1 ack 40 ------- 0 5.1 1.0 4 61
+ 0.298301 1 3 tcp 2040 ------- 0 1.0 5.1 9 80
- 0.298301 1 3 tcp 2040 ------- 0 1.0 5.1 9 80
+ 0.298301 1 3 tcp 2040 ------- 0 1.0 5.1 10 81
- 0.298301 0 3 tcp 2040 ------- 0 0.0 5.0 10 79