+ 1 0 1 tcp 40 ------- 0 0.0 1.0 0 0
- 1 0 1 tcp 40 ------- 0 0.0 1.0 0 0
r 1.01016 0 1 tcp 40 ------- 0 0.0 1.0 0 0
